# vtk DataFile Version 3.0
vtk output at time 240
ASCII
DATASET UNSTRUCTURED_GRID
POINTS 626 float
-3.68058e-05 0.000978749 0 3.68058e-05 0.000978749 0 -0.000829194 0.00052125 0 
-0.0008235 0.0005 0 -0.000866 0.0004575 0 -0.000866 -0.0004575 0 
-0.0008235 -0.0005 0 -0.000829194 -0.00052125 0 -3.68058e-05 -0.000978749 0 
3.68058e-05 -0.000978749 0 0.000829194 -0.00052125 0 0.000866 -0.0004575 0 
0.000866 0.0004575 0 0.000829194 0.00052125 0 8.5e-05 0 0 
-3.68058e-05 0.000978749 -0.001 3.68058e-05 0.000978749 -0.001 -0.000829194 0.00052125 -0.001 
-0.0008235 0.0005 -0.001 -0.000866 0.0004575 -0.001 -0.000866 -0.0004575 -0.001 
-0.0008235 -0.0005 -0.001 -0.000829194 -0.00052125 -0.001 -3.68058e-05 -0.000978749 -0.001 
3.68058e-05 -0.000978749 -0.001 0.000829194 -0.00052125 -0.001 0.000866 -0.0004575 -0.001 
0.000866 0.0004575 -0.001 0.000829194 0.00052125 -0.001 8.5e-05 0 -0.001 
8.46223e-17 0.0009575 0 -0.000715996 0.000586607 0 -0.000602797 0.000651965 0 
-0.000489599 0.000717321 0 -0.000376401 0.000782678 0 -0.000263202 0.000848036 0 
-0.000150004 0.000913393 0 -0.000835948 0.000469948 0 -0.000866 -0.000326786 0 
-0.000866 -0.000196071 0 -0.000866 -6.53571e-05 0 -0.000866 6.53571e-05 0 
-0.000866 0.000196071 0 -0.000866 0.000326786 0 -0.000835948 -0.000469948 0 
-0.000150004 -0.000913393 0 -0.000263202 -0.000848036 0 -0.000376401 -0.000782678 0 
-0.000489599 -0.000717321 0 -0.000602797 -0.000651965 0 -0.000715996 -0.000586607 0 
8.47648e-17 -0.0009575 0 0.000715996 -0.000586607 0 0.000602797 -0.000651965 0 
0.000489599 -0.000717321 0 0.000376401 -0.000782678 0 0.000263202 -0.000848036 0 
0.000150004 -0.000913393 0 0.000829194 -0.00047875 0 0.000866 0.000326786 0 
0.000866 0.000196071 0 0.000866 6.53571e-05 0 0.000866 -6.53571e-05 0 
0.000866 -0.000196071 0 0.000866 -0.000326786 0 0.000829194 0.00047875 0 
0.000150004 0.000913393 0 0.000263202 0.000848036 0 0.000376401 0.000782678 0 
0.000489599 0.000717321 0 0.000602797 0.000651965 0 0.000715996 0.000586607 0 
5.29966e-05 6.64557e-05 0 -1.89143e-05 8.28689e-05 0 -7.65824e-05 3.68801e-05 0 
-7.65824e-05 -3.68801e-05 0 -1.89143e-05 -8.28689e-05 0 5.29966e-05 -6.64557e-05 0 
8.46223e-17 0.0009575 -0.001 -0.000715996 0.000586607 -0.001 -0.000602797 0.000651965 -0.001 
-0.000489599 0.000717321 -0.001 -0.000376401 0.000782678 -0.001 -0.000263202 0.000848036 -0.001 
-0.000150004 0.000913393 -0.001 -0.000835948 0.000469948 -0.001 -0.000866 -0.000326786 -0.001 
-0.000866 -0.000196071 -0.001 -0.000866 -6.53571e-05 -0.001 -0.000866 6.53571e-05 -0.001 
-0.000866 0.000196071 -0.001 -0.000866 0.000326786 -0.001 -0.000835948 -0.000469948 -0.001 
-0.000150004 -0.000913393 -0.001 -0.000263202 -0.000848036 -0.001 -0.000376401 -0.000782678 -0.001 
-0.000489599 -0.000717321 -0.001 -0.000602797 -0.000651965 -0.001 -0.000715996 -0.000586607 -0.001 
8.47648e-17 -0.0009575 -0.001 0.000715996 -0.000586607 -0.001 0.000602797 -0.000651965 -0.001 
0.000489599 -0.000717321 -0.001 0.000376401 -0.000782678 -0.001 0.000263202 -0.000848036 -0.001 
0.000150004 -0.000913393 -0.001 0.000829194 -0.00047875 -0.001 0.000866 0.000326786 -0.001 
0.000866 0.000196071 -0.001 0.000866 6.53571e-05 -0.001 0.000866 -6.53571e-05 -0.001 
0.000866 -0.000196071 -0.001 0.000866 -0.000326786 -0.001 0.000829194 0.00047875 -0.001 
0.000150004 0.000913393 -0.001 0.000263202 0.000848036 -0.001 0.000376401 0.000782678 -0.001 
0.000489599 0.000717321 -0.001 0.000602797 0.000651965 -0.001 0.000715996 0.000586607 -0.001 
5.29966e-05 6.64557e-05 -0.001 -1.89143e-05 8.28689e-05 -0.001 -7.65824e-05 3.68801e-05 -0.001 
-7.65824e-05 -3.68801e-05 -0.001 -1.89143e-05 -8.28689e-05 -0.001 5.29966e-05 -6.64557e-05 -0.001 
0.000131234 6.38474e-05 0 0.00012964 -6.2443e-05 0 3.13827e-05 0.0001394 0 
3.12554e-05 -0.000136939 0 -0.000140461 8.25467e-19 0 -8.90565e-05 -0.000102707 0 
-9.04142e-05 0.000102872 0 -0.000765769 -0.00025965 0 -0.000756873 0.000262774 0 
-0.00015609 0.000787505 0 -0.000155807 -0.00079355 0 0.000605069 0.000528035 0 
0.000608694 -0.00052497 0 0.000744069 0.000116929 0 -0.000494418 0.000596218 0 
-0.000483866 -0.000584648 0 0.000269496 0.000702219 0 0.000263201 -0.000717324 0 
0.000754429 -0.000127825 0 -0.000748858 5.84659e-07 0 -0.000747838 0.000373886 0 
-0.0006542 0.000324842 0 -0.000645137 0.000210123 0 -0.000550884 0.000274171 0 
-0.000538857 0.000163195 0 -0.00045062 0.000224461 0 -0.000438393 0.000123907 0 
-0.000354088 0.000181668 0 -0.000363908 0.000282171 0 -0.000270361 0.000239477 0 
-0.000279138 0.000337653 0 -0.000188888 0.000294791 0 -0.000196448 0.000393271 0 
-0.000104767 0.000348259 0 -0.000113332 0.000449012 0 -2.01066e-05 0.000403223 0 
-2.89189e-05 0.000507105 0 6.9524e-05 0.000461596 0 -0.000213644 0.000490203 0 
7.33757e-05 0.000357726 0 0.000163331 0.00041299 0 0.000163359 0.000313022 0 
0.000248077 0.000366368 0 0.000250914 0.000265758 0 0.000335709 0.000322266 0 
0.000340555 0.000218148 0 0.000427299 0.000276717 0 0.000431508 0.000173093 0 
0.000328731 0.000425633 0 0.00034586 0.000114823 0 0.000435362 7.05241e-05 0 
0.000350892 1.5455e-05 0 0.000441547 -3.11896e-05 0 0.000353547 -8.47783e-05 0 
0.000445767 -0.000132964 0 0.000356135 -0.000186358 0 0.000449094 -0.000234674 0 
0.000359978 -0.000287876 0 0.00026856 -0.000240545 0 0.000271895 -0.000341045 0 
0.000181792 -0.00029305 0 0.00018533 -0.000392851 0 9.75701e-05 -0.00034483 0 
9.98764e-05 -0.000444884 0 8.75116e-06 -0.000396343 0 1.20916e-05 -0.000500496 0 
-7.83929e-05 -0.000449843 0 -8.1471e-05 -0.000347249 0 -0.000171566 -0.000403733 0 
-0.000169889 -0.000298891 0 -0.000259867 -0.000354132 0 -0.000257696 -0.000249137 0 
-0.00034313 -0.000299896 0 -0.000344514 -0.000199127 0 -0.000434309 -0.000250039 0 
-0.000169832 -0.000505815 0 -0.000435227 -0.000146227 0 0.000280331 -0.000442424 0 
-0.000340889 8.76793e-05 0 -0.000515252 4.06198e-05 0 6.50491e-05 0.000568253 0 
0.00053278 1.74743e-05 0 0.000522071 0.000229831 0 -0.00037162 0.000391659 0 
-0.000255272 -0.000150439 0 -0.000442893 -0.000350705 0 0.000450067 -0.000332559 0 
0.000545175 -0.000276306 0 -0.000527797 -0.000197598 0 0.000105306 -0.000551033 0 
1.45836e-05 -0.000609147 0 0.00017145 0.000214453 0 0.000515525 0.000341711 0 
0.000636086 0.000290368 0 -0.000558657 0.000404468 0 -4.01232e-05 0.000616718 0 
6.60192e-05 0.000696422 0 -0.000101806 0.0002546 0 0.000271142 -3.88908e-05 0 
0.000179455 -0.00018534 0 -8.79553e-05 -0.000254307 0 -0.000749267 -0.000373451 0 
-0.000655941 -0.000323397 0 0.000709746 0.000466718 0 0.000698426 -0.000473086 0 
-5.25801e-05 -0.00084886 0 -4.93005e-05 0.000848038 0 0.000617396 -0.000413362 0 
0.000702056 -0.000369817 0 0.000131459 -0.000679171 0 2.48171e-05 -0.000715924 0 
-0.000664217 -0.00042729 0 -0.000528828 -8.80444e-05 0 -0.000611101 -0.000136672 0 
-0.000426972 -4.45841e-05 0 0.000800669 0.000378216 0 0.000821144 -0.000415062 0 
7.2799e-05 0.00088254 0 6.81831e-05 -0.00087503 0 0.000104963 -0.000788946 0 
-7.40696e-05 -0.000660054 0 0.000126061 0.000809943 0 0.000764361 0.000295682 0 
0.000166862 0.000630623 0 0.000516462 -0.00046707 0 -0.000563585 -0.000389606 0 
-0.000622598 -1.40238e-05 0 0.000629891 0.000171529 0 2.5614e-06 -0.000299794 0 
8.6901e-05 -0.00024329 0 0.000272045 -0.000136982 0 -0.00075148 0.000138321 0 
0.000209366 -0.000599589 0 0.000324913 -0.000630055 0 0.000614044 0.00041245 0 
0.00049651 -0.000573327 0 0.000394822 -0.000507321 0 -0.000173714 -0.000206698 0 
0.000264897 5.63722e-05 0 0.000247997 0.000152811 0 -4.63327e-05 -0.000920208 0 
9.18688e-05 0.000258626 0 -5.54111e-06 0.000290558 0 -0.000184219 0.000201484 0 
-0.000263559 0.000142267 0 -0.000256427 5.13624e-05 0 -0.000336894 -2.06179e-06 0 
-0.000228499 -4.2388e-05 0 -0.00017589 0.000106626 0 -0.000769947 -0.000133367 0 
0.000767591 -0.000500293 0 -5.05874e-05 0.000737978 0 0.000754456 -3.51771e-06 0 
0.00064691 -6.15298e-05 0 0.000630483 -0.00018134 0 0.000749187 -0.000265543 0 
-0.000760805 -0.000462521 0 0.000638155 6.09315e-05 0 -4.46661e-05 0.000922995 0 
-2.37945e-05 0.000207237 0 0.000776979 0.000500181 0 -0.000605691 0.000527596 0 
-0.000377914 -0.000653727 0 -0.000372325 -0.000526022 0 -0.000275829 -0.000589621 0 
-0.000254285 -0.000710579 0 -0.000379307 0.000656222 0 -0.000379818 0.00052718 0 
-0.000266817 0.000721555 0 -0.000150544 0.000668174 0 0.000381963 0.00065079 0 
0.000493113 0.000590432 0 0.000505439 0.000463708 0 -0.000269094 0.000596608 0 
0.000385815 0.000532045 0 0.000283599 0.0005899 0 -0.000176405 -0.000108505 0 
-0.000278769 -0.000475415 0 0.000185395 2.33014e-06 0 0.000186773 0.000517571 0 
0.000540032 -8.68444e-05 0 -0.000600694 -0.000514877 0 -0.00063703 8.98033e-05 0 
-0.000459677 0.000335729 0 -0.000338836 -0.000100751 0 -0.000457327 0.000432721 0 
-8.72007e-06 -0.000210238 0 0.000156073 0.000129496 0 -7.70692e-05 -0.000555049 0 
0.00036091 -0.000389728 0 0.000531628 0.000120564 0 -0.000285451 0.000435562 0 
0.000192719 -0.000494604 0 0.00041642 0.00039368 0 -0.000135943 0.000554637 0 
-0.000170665 -0.000610079 0 -0.000666304 0.000434981 0 -0.000758736 0.000479231 0 
-0.000470189 -0.000458901 0 0.000203433 -8.59809e-05 0 0.000101846 0.000170114 0 
-0.00035513 -0.00040726 0 0.000100184 -0.000165831 0 2.96286e-05 0.00081537 0 
0.000720946 0.000381836 0 -0.000539809 -0.000292001 0 0.00052211 -0.000182426 0 
-6.41339e-05 -0.000753908 0 0.000638039 -0.000299861 0 -0.000605136 -0.000230182 0 
-3.41638e-05 -0.000145561 0 -0.000104037 0.000172396 0 -0.000808575 -0.00042774 0 
-0.000807207 -0.000465052 0 -0.00080817 0.000429771 0 -0.000806589 0.000469738 0 
-9.50634e-05 -0.000178909 0 0.000247777 0.000445058 0 1.48293e-05 -0.000814201 0 
-4.11555e-05 0.000140955 0 0.000276104 -0.000536845 0 0.000765969 -0.000436638 0 
0.000780871 -0.000362769 0 0.000424176 -0.000642018 0 0.00053413 -0.000368009 0 
-0.000416333 4.17911e-05 0 -0.000133891 -6.23822e-05 0 4.2574e-05 0.000206312 0 
[...]
POINT_DATA 626
VECTORS displacement float
-1.74395e-06 3.09545e-05 1.8055e-05
1.73566e-06 3.09735e-05 1.81001e-05
-2.59863e-05 1.69929e-05 1.80871e-05
-2.5841e-05 1.6033e-05 1.80517e-05
-2.77207e-05 1.39728e-05 1.80691e-05
-2.77137e-05 -1.40191e-05 1.80945e-05
-2.58122e-05 -1.60712e-05 1.81059e-05
-2.59825e-05 -1.70109e-05 1.81671e-05
-1.6774e-06 -3.09582e-05 1.80514e-05
1.75545e-06 -3.09597e-05 1.81019e-05
2.59437e-05 -1.69807e-05 1.80435e-05
2.77171e-05 -1.39367e-05 1.80434e-05
2.76725e-05 1.39894e-05 1.80917e-05
2.5915e-05 1.6993e-05 1.8046e-05
0 0 0
-1.74395e-06 3.09545e-05 -1.8055e-05
1.73566e-06 3.09735e-05 -1.81001e-05
-2.59863e-05 1.69929e-05 -1.80871e-05
-2.5841e-05 1.6033e-05 -1.80517e-05
-2.77207e-05 1.39728e-05 -1.80691e-05
-2.77137e-05 -1.40191e-05 -1.80945e-05
-2.58122e-05 -1.60712e-05 -1.81059e-05
-2.59825e-05 -1.70109e-05 -1.81671e-05
-1.6774e-06 -3.09582e-05 -1.80514e-05
1.75545e-06 -3.09597e-05 -1.81019e-05
2.59437e-05 -1.69807e-05 -1.80435e-05
2.77171e-05 -1.39367e-05 -1.80434e-05
2.76725e-05 1.39894e-05 -1.80917e-05
2.5915e-05 1.6993e-05 -1.8046e-05
0 0 0
2.4894e-08 3.01544e-05 1.80342e-05
-2.11406e-05 1.87124e-05 1.75497e-05
-1.72325e-05 1.98338e-05 1.69208e-05
-1.4007e-05 2.10543e-05 1.65549e-05
-1.12069e-05 2.26649e-05 1.65488e-05
-8.52409e-06 2.48329e-05 1.69013e-05
-5.5678e-06 2.76218e-05 1.75374e-05
-2.64499e-05 1.46791e-05 1.80335e-05
-2.67688e-05 -9.01155e-06 1.75774e-05
-2.58063e-05 -5.03548e-06 1.6926e-05
-2.52545e-05 -1.63621e-06 1.65714e-05
-2.52575e-05 1.60785e-06 1.65744e-05
-2.57985e-05 5.02288e-06 1.69242e-05
-2.6755e-05 8.98463e-06 1.75639e-05
-2.64368e-05 -1.47255e-05 1.80623e-05
-5.54106e-06 -2.76362e-05 1.75297e-05
-8.47661e-06 -2.48419e-05 1.69007e-05
-1.11701e-05 -2.26843e-05 1.65562e-05
-1.39706e-05 -2.10873e-05 1.65595e-05
-1.7215e-05 -1.98692e-05 1.69367e-05
-2.11342e-05 -1.87492e-05 1.75622e-05
8.98395e-08 -3.01392e-05 1.80294e-05
2.1124e-05 -1.86249e-05 1.75115e-05
1.72447e-05 -1.97622e-05 1.68728e-05
1.40339e-05 -2.10112e-05 1.65116e-05
1.12251e-05 -2.2593e-05 1.65461e-05
8.58125e-06 -2.47801e-05 1.68742e-05
5.65468e-06 -2.76265e-05 1.7535e-05
2.61246e-05 -1.50597e-05 1.80284e-05
2.67169e-05 8.93842e-06 1.75015e-05
2.57221e-05 5.0496e-06 1.69084e-05
2.52066e-05 1.62332e-06 1.65232e-05
2.52037e-05 -1.59943e-06 1.65215e-05
2.57507e-05 -4.99739e-06 1.68883e-05
2.66989e-05 -8.91717e-06 1.75097e-05
2.61077e-05 1.50608e-05 1.80254e-05
5.63314e-06 2.76178e-05 1.75096e-05
8.50863e-06 2.48068e-05 1.69112e-05
1.12171e-05 2.26411e-05 1.65294e-05
1.40045e-05 2.10222e-05 1.65247e-05
1.72217e-05 1.97935e-05 1.68851e-05
2.1115e-05 1.86345e-05 1.75254e-05
0 0 0
0 0 0
0 0 0
0 0 0
0 0 0
0 0 0
2.4894e-08 3.01544e-05 -1.80342e-05
-2.11406e-05 1.87124e-05 -1.75497e-05
-1.72325e-05 1.98338e-05 -1.69208e-05
-1.4007e-05 2.10543e-05 -1.65549e-05
-1.12069e-05 2.26649e-05 -1.65488e-05
-8.52409e-06 2.48329e-05 -1.69013e-05
-5.5678e-06 2.76218e-05 -1.75374e-05
-2.64499e-05 1.46791e-05 -1.80335e-05
-2.67688e-05 -9.01155e-06 -1.75774e-05
-2.58063e-05 -5.03548e-06 -1.6926e-05
-2.52545e-05 -1.63621e-06 -1.65714e-05
-2.52575e-05 1.60785e-06 -1.65744e-05
-2.57985e-05 5.02288e-06 -1.69242e-05
-2.6755e-05 8.98463e-06 -1.75639e-05
-2.64368e-05 -1.47255e-05 -1.80623e-05
-5.54106e-06 -2.76362e-05 -1.75297e-05
-8.47661e-06 -2.48419e-05 -1.69007e-05
-1.11701e-05 -2.26843e-05 -1.65562e-05
-1.39706e-05 -2.10873e-05 -1.65595e-05
-1.7215e-05 -1.98692e-05 -1.69367e-05
-2.11342e-05 -1.87492e-05 -1.75622e-05
8.98395e-08 -3.01392e-05 -1.80294e-05
2.1124e-05 -1.86249e-05 -1.75115e-05
1.72447e-05 -1.97622e-05 -1.68728e-05
1.40339e-05 -2.10112e-05 -1.65116e-05
1.12251e-05 -2.2593e-05 -1.65461e-05
8.58125e-06 -2.47801e-05 -1.68742e-05
5.65468e-06 -2.76265e-05 -1.7535e-05
2.61246e-05 -1.50597e-05 -1.80284e-05
2.67169e-05 8.93842e-06 -1.75015e-05
2.57221e-05 5.0496e-06 -1.69084e-05
2.52066e-05 1.62332e-06 -1.65232e-05
2.52037e-05 -1.59943e-06 -1.65215e-05
2.57507e-05 -4.99739e-06 -1.68883e-05
2.66989e-05 -8.91717e-06 -1.75097e-05
2.61077e-05 1.50608e-05 -1.80254e-05
5.63314e-06 2.76178e-05 -1.75096e-05
8.50863e-06 2.48068e-05 -1.69112e-05
1.12171e-05 2.26411e-05 -1.65294e-05
1.40045e-05 2.10222e-05 -1.65247e-05
1.72217e-05 1.97935e-05 -1.68851e-05
2.1115e-05 1.86345e-05 -1.75254e-05
0 0 0
0 0 0
0 0 0
0 0 0
0 0 0
0 0 0
1.79368e-06 8.58746e-07 4.55225e-06
1.73782e-06 -8.25114e-07 4.4608e-06
4.31954e-07 1.84962e-06 4.49512e-06
4.36098e-07 -1.78063e-06 4.35609e-06
-1.84749e-06 2.09631e-08 4.42236e-06
-1.12309e-06 -1.30887e-06 4.151e-06
-1.15921e-06 1.3068e-06 4.19978e-06
-2.25131e-05 -7.28768e-06 1.69999e-05
-2.21964e-05 7.37157e-06 1.69686e-05
-4.86044e-06 2.28985e-05 1.6937e-05
-4.85796e-06 -2.31316e-05 1.69639e-05
1.74212e-05 1.56355e-05 1.69298e-05
1.75688e-05 -1.55364e-05 1.69391e-05
2.10735e-05 3.16388e-06 1.63244e-05
-1.39531e-05 1.71513e-05 1.64783e-05
-1.35912e-05 -1.67413e-05 1.64099e-05
7.76785e-06 1.98195e-05 1.63312e-05
7.68487e-06 -2.03099e-05 1.64025e-05
2.14723e-05 -3.44373e-06 1.64001e-05
-2.11027e-05 6.58809e-09 1.62466e-05
-2.24204e-05 1.09997e-05 1.74536e-05
-1.87509e-05 9.25469e-06 1.6627e-05
-1.79828e-05 5.79545e-06 1.60362e-05
-1.49839e-05 7.44833e-06 1.54863e-05
-1.42244e-05 4.30772e-06 1.48296e-05
-1.15326e-05 5.74388e-06 1.40946e-05
-1.0858e-05 3.06873e-06 1.33734e-05
-8.40048e-06 4.30487e-06 1.24042e-05
-9.0588e-06 7.0134e-06 1.34562e-05
-6.2041e-06 5.4885e-06 1.16889e-05
-6.8283e-06 8.24944e-06 1.30798e-05
-4.28139e-06 6.6749e-06 1.14504e-05
-4.80001e-06 9.60992e-06 1.30938e-05
-2.40087e-06 7.99334e-06 1.17228e-05
-2.81285e-06 1.11672e-05 1.34748e-05
-4.7541e-07 9.59529e-06 1.25008e-05
-7.38354e-07 1.29969e-05 1.41416e-05
1.73108e-06 1.15178e-05 1.35349e-05
-5.53468e-06 1.27004e-05 1.44368e-05
1.68508e-06 8.22397e-06 1.17474e-05
4.00418e-06 1.01209e-05 1.31508e-05
3.70535e-06 7.09795e-06 1.14781e-05
6.0674e-06 8.96666e-06 1.31132e-05
5.76682e-06 6.10679e-06 1.17354e-05
8.35808e-06 8.02032e-06 1.34919e-05
8.10565e-06 5.19526e-06 1.25002e-05
1.0954e-05 7.09705e-06 1.41468e-05
1.0746e-05 4.32279e-06 1.34989e-05
8.53052e-06 1.10375e-05 1.44606e-05
7.93769e-06 2.64374e-06 1.17273e-05
1.0646e-05 1.7372e-06 1.31039e-05
7.94868e-06 3.5876e-07 1.14554e-05
1.08064e-05 -7.59112e-07 1.3124e-05
8.11164e-06 -1.9378e-06 1.1709e-05
1.10983e-05 -3.31285e-06 1.34838e-05
8.46973e-06 -4.42398e-06 1.24439e-05
1.15037e-05 -6.00288e-06 1.41093e-05
8.95557e-06 -7.13811e-06 1.34279e-05
6.14752e-06 -5.49441e-06 1.16412e-05
6.6445e-06 -8.30086e-06 1.30181e-05
4.1052e-06 -6.58851e-06 1.13108e-05
4.52336e-06 -9.55087e-06 1.29882e-05
2.24229e-06 -7.85829e-06 1.15972e-05
2.48483e-06 -1.10019e-05 1.33508e-05
2.25291e-07 -9.37369e-06 1.23535e-05
3.30014e-07 -1.27698e-05 1.40337e-05
-1.91544e-06 -1.11507e-05 1.33769e-05
-1.84107e-06 -7.92162e-06 1.15821e-05
-4.1679e-06 -9.87485e-06 1.30849e-05
-3.81394e-06 -6.7305e-06 1.1317e-05
-6.34562e-06 -8.66202e-06 1.30992e-05
-5.8913e-06 -5.69801e-06 1.16283e-05
-8.49972e-06 -7.4358e-06 1.33796e-05
-8.16755e-06 -4.72806e-06 1.24085e-05
-1.10957e-05 -6.40277e-06 1.40698e-05
-4.37166e-06 -1.31232e-05 1.44336e-05
-1.08089e-05 -3.65068e-06 1.34391e-05
7.22612e-06 -1.13728e-05 1.42729e-05
-7.74171e-06 1.98269e-06 1.14928e-05
-1.32161e-05 1.03506e-06 1.42109e-05
1.72912e-06 1.50828e-05 1.49522e-05
1.37681e-05 4.62238e-07 1.43877e-05
1.38432e-05 6.10011e-06 1.49317e-05
-9.69407e-06 1.01963e-05 1.45324e-05
-5.41602e-06 -3.19766e-06 1.01821e-05
-1.17136e-05 -9.29735e-06 1.48892e-05
1.18824e-05 -8.76022e-06 1.47871e-05
1.47818e-05 -7.47362e-06 1.54033e-05
-1.39598e-05 -5.2439e-06 1.48616e-05
2.79583e-06 -1.45162e-05 1.47962e-05
4.24564e-07 -1.64994e-05 1.53977e-05
3.51844e-06 4.39695e-06 9.5811e-06
1.40106e-05 9.29907e-06 1.54916e-05
1.79308e-05 8.14497e-06 1.63006e-05
-1.56755e-05 1.13954e-05 1.62335e-05
-1.09409e-06 1.67691e-05 1.54953e-05
1.90686e-06 1.96217e-05 1.6311e-05
-2.09187e-06 5.22009e-06 9.59759e-06
5.55396e-06 -7.84605e-07 9.59414e-06
3.58596e-06 -3.68357e-06 9.08198e-06
-1.77964e-06 -5.17859e-06 9.44961e-06
-2.24688e-05 -1.10108e-05 1.74743e-05
-1.87982e-05 -9.24144e-06 1.66511e-05
2.11479e-05 1.41648e-05 1.75056e-05
2.07538e-05 -1.43176e-05 1.74356e-05
-1.76461e-06 -2.54466e-05 1.7511e-05
-1.68214e-06 2.54106e-05 1.75156e-05
1.7713e-05 -1.19069e-05 1.66872e-05
2.06458e-05 -1.07511e-05 1.7116e-05
3.77565e-06 -1.89852e-05 1.61394e-05
7.68533e-07 -2.03458e-05 1.64829e-05
-1.94051e-05 -1.26506e-05 1.71432e-05
-1.37311e-05 -2.30693e-06 1.44719e-05
-1.65927e-05 -3.70144e-06 1.54775e-05
-1.03758e-05 -1.09639e-06 1.29521e-05
2.44521e-05 1.10728e-05 1.76516e-05
2.54976e-05 -1.24033e-05 1.78482e-05
2.64925e-06 2.6726e-05 1.76605e-05
2.52101e-06 -2.64136e-05 1.76294e-05
3.33947e-06 -2.30319e-05 1.70291e-05
-2.0539e-06 -1.83199e-05 1.59509e-05
4.05907e-06 2.37914e-05 1.71304e-05
2.26142e-05 8.37926e-06 1.71193e-05
4.61361e-06 1.73134e-05 1.57273e-05
1.4427e-05 -1.31195e-05 1.61374e-05
-1.57877e-05 -1.09847e-05 1.62146e-05
-1.67998e-05 -3.81428e-07 1.53773e-05
1.73059e-05 4.68748e-06 1.57256e-05
6.5522e-08 -6.38731e-06 1.02674e-05
1.74171e-06 -4.84846e-06 9.09248e-06
5.85046e-06 -2.93551e-06 1.03782e-05
-2.14442e-05 3.75051e-06 1.64588e-05
5.72936e-06 -1.62745e-05 1.55077e-05
9.08346e-06 -1.7499e-05 1.59975e-05
1.75722e-05 1.18817e-05 1.66723e-05
1.39942e-05 -1.63822e-05 1.64012e-05
1.074e-05 -1.3789e-05 1.55501e-05
-3.54797e-06 -4.22019e-06 9.50075e-06
5.39911e-06 1.1385e-06 9.49904e-06
5.21805e-06 3.22287e-06 1.00472e-05
-1.74979e-06 -2.83545e-05 1.78769e-05
1.89206e-06 5.29889e-06 9.58443e-06
-1.13823e-07 6.105e-06 1.00387e-05
-3.78492e-06 4.12774e-06 9.57839e-06
-5.62267e-06 3.03418e-06 1.02852e-05
-5.16547e-06 1.04067e-06 9.2136e-06
-7.52724e-06 -6.17391e-08 1.11724e-05
-4.33437e-06 -8.10277e-07 8.38184e-06
-3.10858e-06 1.87233e-06 7.37405e-06
-2.20811e-05 -3.60775e-06 1.65158e-05
2.34062e-05 -1.5688e-05 1.78361e-05
-1.5072e-06 2.11679e-05 1.6682e-05
2.12616e-05 -8.45195e-08 1.62257e-05
1.7622e-05 -1.6468e-06 1.55814e-05
1.73477e-05 -4.94167e-06 1.57706e-05
2.18915e-05 -7.4511e-06 1.69136e-05
-2.31822e-05 -1.42546e-05 1.78327e-05
1.73246e-05 1.64887e-06 1.55085e-05
-1.734e-06 2.8473e-05 1.78941e-05
-4.22071e-07 3.68341e-06 7.49529e-06
2.37719e-05 1.57423e-05 1.78845e-05
-1.74973e-05 1.56422e-05 1.69749e-05
-1.06262e-05 -1.84661e-05 1.6255e-05
-1.00995e-05 -1.43423e-05 1.55716e-05
-7.50776e-06 -1.60948e-05 1.5622e-05
-7.32212e-06 -2.01205e-05 1.63953e-05
-1.07044e-05 1.85352e-05 1.62668e-05
-1.03473e-05 1.43841e-05 1.56193e-05
-7.77263e-06 2.04924e-05 1.64442e-05
-4.25299e-06 1.86097e-05 1.60529e-05
1.07597e-05 1.83454e-05 1.62261e-05
1.38916e-05 1.69349e-05 1.6431e-05
1.40419e-05 1.29729e-05 1.60513e-05
-7.36157e-06 1.62883e-05 1.56385e-05
1.05251e-05 1.4547e-05 1.56452e-05
7.74874e-06 1.60923e-05 1.56139e-05
-3.11646e-06 -1.89876e-06 7.39318e-06
-7.25764e-06 -1.2422e-05 1.46251e-05
3.00866e-06 4.03602e-08 6.60098e-06
4.87257e-06 1.35227e-05 1.46181e-05
1.4076e-05 -2.26039e-06 1.45704e-05
-1.72898e-05 -1.52167e-05 1.69455e-05
-1.73665e-05 2.4203e-06 1.55978e-05
-1.22047e-05 8.91193e-06 1.49435e-05
-7.70563e-06 -2.29252e-06 1.15546e-05
-1.24498e-05 1.18126e-05 1.554e-05
-1.42735e-07 -3.75423e-06 7.55418e-06
2.73023e-06 2.27208e-06 7.25193e-06
-2.00386e-06 -1.46505e-05 1.4808e-05
9.36509e-06 -1.00682e-05 1.43894e-05
1.38607e-05 3.15781e-06 1.45661e-05
-7.34004e-06 1.11994e-05 1.42603e-05
4.99722e-06 -1.27748e-05 1.43693e-05
1.10319e-05 1.04305e-05 1.49196e-05
-3.59645e-06 1.46853e-05 1.4908e-05
-4.63547e-06 -1.66169e-05 1.55488e-05
-1.95071e-05 1.28925e-05 1.71613e-05
-2.3127e-05 1.48582e-05 1.78434e-05
-1.29049e-05 -1.26861e-05 1.58125e-05
3.7608e-06 -1.58613e-06 7.90696e-06
1.7644e-06 2.92229e-06 7.08444e-06
-9.23049e-06 -1.06095e-05 1.45318e-05
1.72774e-06 -2.82316e-06 6.93107e-06
9.94733e-07 2.41169e-05 1.73085e-05
2.1368e-05 1.11939e-05 1.72987e-05
-1.46646e-05 -7.9534e-06 1.54854e-05
1.37081e-05 -4.78633e-06 1.46907e-05
-1.90989e-06 -2.1763e-05 1.68028e-05
1.80604e-05 -8.41908e-06 1.63407e-05
-1.6679e-05 -6.32858e-06 1.57825e-05
-4.32901e-07 -1.92233e-06 4.79848e-06
-1.80537e-06 2.99545e-06 7.17719e-06
-2.50521e-05 -1.29818e-05 1.79223e-05
-2.51273e-05 -1.45073e-05 1.80021e-05
-2.50452e-05 1.30337e-05 1.79061e-05
-2.51181e-05 1.465e-05 1.79822e-05
-1.64846e-06 -3.12485e-06 7.20993e-06
6.32796e-06 1.13684e-05 1.40766e-05
5.33712e-07 -2.40862e-05 1.73023e-05
-5.22779e-07 1.80955e-06 4.64502e-06
7.40748e-06 -1.43437e-05 1.51524e-05
2.33029e-05 -1.32094e-05 1.77289e-05
2.36328e-05 -1.05376e-05 1.74909e-05
1.19884e-05 -1.8211e-05 1.62933e-05
1.47302e-05 -1.01467e-05 1.57956e-05
-1.00271e-05 1.00125e-06 1.27547e-05
-1.74002e-06 -8.15904e-07 4.72347e-06
7.69066e-07 3.70836e-06 7.57316e-06
2.34308e-06 -1.99716e-06 6.5553e-06
2.01566e-05 5.89784e-06 1.64537e-05
5.0701e-06 2.0596e-05 1.64961e-05
3.42118e-07 -2.76801e-05 1.78541e-05
-1.73123e-06 7.09113e-07 4.60634e-06
-3.21152e-06 6.2305e-07 6.82416e-06
3.57722e-06 1.47542e-06 7.63664e-06
4.99226e-07 2.83239e-05 1.79273e-05
2.47604e-05 1.37341e-05 1.79185e-05
-2.03284e-05 1.55359e-05 1.74291e-05
1.17871e-06 1.36448e-06 4.45987e-06
-2.06397e-05 -1.57285e-05 1.75277e-05
-1.8999e-05 -2.32219e-06 1.59462e-05
-1.95592e-05 -5.58501e-06 1.63323e-05
9.05685e-07 -3.24776e-06 7.00612e-06
-4.36604e-06 -1.97894e-05 1.63219e-05
-7.93731e-06 1.38345e-05 1.51011e-05
1.16575e-06 -1.30419e-06 4.33931e-06
1.19345e-05 -1.12284e-05 1.52922e-05
6.13309e-06 -2.26962e-05 1.68205e-05
-1.45222e-05 1.43554e-05 1.63237e-05
7.9291e-06 1.33213e-05 1.4948e-05
1.79368e-06 8.58746e-07 -4.55225e-06
1.73782e-06 -8.25114e-07 -4.4608e-06
4.31954e-07 1.84962e-06 -4.49512e-06
4.36098e-07 -1.78063e-06 -4.35609e-06
-1.84749e-06 2.09631e-08 -4.42236e-06
-1.12309e-06 -1.30887e-06 -4.151e-06
-1.15921e-06 1.3068e-06 -4.19978e-06
-2.25131e-05 -7.28768e-06 -1.69999e-05
-2.21964e-05 7.37157e-06 -1.69686e-05
-4.86044e-06 2.28985e-05 -1.6937e-05
-4.85796e-06 -2.31316e-05 -1.69639e-05
1.74212e-05 1.56355e-05 -1.69298e-05
1.75688e-05 -1.55364e-05 -1.69391e-05
2.10735e-05 3.16388e-06 -1.63244e-05
-1.39531e-05 1.71513e-05 -1.64783e-05
-1.35912e-05 -1.67413e-05 -1.64099e-05
7.76785e-06 1.98195e-05 -1.63312e-05
7.68487e-06 -2.03099e-05 -1.64025e-05
2.14723e-05 -3.44373e-06 -1.64001e-05
-2.11027e-05 6.58809e-09 -1.62466e-05
-2.24204e-05 1.09997e-05 -1.74536e-05
-1.87509e-05 9.25469e-06 -1.6627e-05
-1.79828e-05 5.79545e-06 -1.60362e-05
-1.49839e-05 7.44833e-06 -1.54863e-05
-1.42244e-05 4.30772e-06 -1.48296e-05
-1.15326e-05 5.74388e-06 -1.40946e-05
-1.0858e-05 3.06873e-06 -1.33734e-05
-8.40048e-06 4.30487e-06 -1.24042e-05
-9.0588e-06 7.0134e-06 -1.34562e-05
-6.2041e-06 5.4885e-06 -1.16889e-05
-6.8283e-06 8.24944e-06 -1.30798e-05
-4.28139e-06 6.6749e-06 -1.14504e-05
-4.80001e-06 9.60992e-06 -1.30938e-05
-2.40087e-06 7.99334e-06 -1.17228e-05
-2.81285e-06 1.11672e-05 -1.34748e-05
-4.7541e-07 9.59529e-06 -1.25008e-05
-7.38354e-07 1.29969e-05 -1.41416e-05
1.73108e-06 1.15178e-05 -1.35349e-05
-5.53468e-06 1.27004e-05 -1.44368e-05
1.68508e-06 8.22397e-06 -1.17474e-05
4.00418e-06 1.01209e-05 -1.31508e-05
3.70535e-06 7.09795e-06 -1.14781e-05
6.0674e-06 8.96666e-06 -1.31132e-05
5.76682e-06 6.10679e-06 -1.17354e-05
8.35808e-06 8.02032e-06 -1.34919e-05
8.10565e-06 5.19526e-06 -1.25002e-05
1.0954e-05 7.09705e-06 -1.41468e-05
1.0746e-05 4.32279e-06 -1.34989e-05
8.53052e-06 1.10375e-05 -1.44606e-05
7.93769e-06 2.64374e-06 -1.17273e-05
1.0646e-05 1.7372e-06 -1.31039e-05
7.94868e-06 3.5876e-07 -1.14554e-05
1.08064e-05 -7.59112e-07 -1.3124e-05
8.11164e-06 -1.9378e-06 -1.1709e-05
1.10983e-05 -3.31285e-06 -1.34838e-05
8.46973e-06 -4.42398e-06 -1.24439e-05
1.15037e-05 -6.00288e-06 -1.41093e-05
8.95557e-06 -7.13811e-06 -1.34279e-05
6.14752e-06 -5.49441e-06 -1.16412e-05
6.6445e-06 -8.30086e-06 -1.30181e-05
4.1052e-06 -6.58851e-06 -1.13108e-05
4.52336e-06 -9.55087e-06 -1.29882e-05
2.24229e-06 -7.85829e-06 -1.15972e-05
2.48483e-06 -1.10019e-05 -1.33508e-05
2.25291e-07 -9.37369e-06 -1.23535e-05
3.30014e-07 -1.27698e-05 -1.40337e-05
-1.91544e-06 -1.11507e-05 -1.33769e-05
-1.84107e-06 -7.92162e-06 -1.15821e-05
-4.1679e-06 -9.87485e-06 -1.30849e-05
-3.81394e-06 -6.7305e-06 -1.1317e-05
-6.34562e-06 -8.66202e-06 -1.30992e-05
-5.8913e-06 -5.69801e-06 -1.16283e-05
-8.49972e-06 -7.4358e-06 -1.33796e-05
-8.16755e-06 -4.72806e-06 -1.24085e-05
-1.10957e-05 -6.40277e-06 -1.40698e-05
-4.37166e-06 -1.31232e-05 -1.44336e-05
-1.08089e-05 -3.65068e-06 -1.34391e-05
7.22612e-06 -1.13728e-05 -1.42729e-05
-7.74171e-06 1.98269e-06 -1.14928e-05
-1.32161e-05 1.03506e-06 -1.42109e-05
1.72912e-06 1.50828e-05 -1.49522e-05
1.37681e-05 4.62238e-07 -1.43877e-05
1.38432e-05 6.10011e-06 -1.49317e-05
-9.69407e-06 1.01963e-05 -1.45324e-05
-5.41602e-06 -3.19766e-06 -1.01821e-05
-1.17136e-05 -9.29735e-06 -1.48892e-05
1.18824e-05 -8.76022e-06 -1.47871e-05
1.47818e-05 -7.47362e-06 -1.54033e-05
-1.39598e-05 -5.2439e-06 -1.48616e-05
2.79583e-06 -1.45162e-05 -1.47962e-05
4.24564e-07 -1.64994e-05 -1.53977e-05
3.51844e-06 4.39695e-06 -9.5811e-06
1.40106e-05 9.29907e-06 -1.54916e-05
1.79308e-05 8.14497e-06 -1.63006e-05
-1.56755e-05 1.13954e-05 -1.62335e-05
-1.09409e-06 1.67691e-05 -1.54953e-05
1.90686e-06 1.96217e-05 -1.6311e-05
-2.09187e-06 5.22009e-06 -9.59759e-06
5.55396e-06 -7.84605e-07 -9.59414e-06
3.58596e-06 -3.68357e-06 -9.08198e-06
-1.77964e-06 -5.17859e-06 -9.44961e-06
-2.24688e-05 -1.10108e-05 -1.74743e-05
-1.87982e-05 -9.24144e-06 -1.66511e-05
2.11479e-05 1.41648e-05 -1.75056e-05
2.07538e-05 -1.43176e-05 -1.74356e-05
-1.76461e-06 -2.54466e-05 -1.7511e-05
-1.68214e-06 2.54106e-05 -1.75156e-05
1.7713e-05 -1.19069e-05 -1.66872e-05
2.06458e-05 -1.07511e-05 -1.7116e-05
3.77565e-06 -1.89852e-05 -1.61394e-05
7.68533e-07 -2.03458e-05 -1.64829e-05
-1.94051e-05 -1.26506e-05 -1.71432e-05
-1.37311e-05 -2.30693e-06 -1.44719e-05
-1.65927e-05 -3.70144e-06 -1.54775e-05
-1.03758e-05 -1.09639e-06 -1.29521e-05
2.44521e-05 1.10728e-05 -1.76516e-05
2.54976e-05 -1.24033e-05 -1.78482e-05
2.64925e-06 2.6726e-05 -1.76605e-05
2.52101e-06 -2.64136e-05 -1.76294e-05
3.33947e-06 -2.30319e-05 -1.70291e-05
-2.0539e-06 -1.83199e-05 -1.59509e-05
4.05907e-06 2.37914e-05 -1.71304e-05
2.26142e-05 8.37926e-06 -1.71193e-05
4.61361e-06 1.73134e-05 -1.57273e-05
1.4427e-05 -1.31195e-05 -1.61374e-05
-1.57877e-05 -1.09847e-05 -1.62146e-05
-1.67998e-05 -3.81428e-07 -1.53773e-05
1.73059e-05 4.68748e-06 -1.57256e-05
6.5522e-08 -6.38731e-06 -1.02674e-05
1.74171e-06 -4.84846e-06 -9.09248e-06
5.85046e-06 -2.93551e-06 -1.03782e-05
-2.14442e-05 3.75051e-06 -1.64588e-05
5.72936e-06 -1.62745e-05 -1.55077e-05
9.08346e-06 -1.7499e-05 -1.59975e-05
1.75722e-05 1.18817e-05 -1.66723e-05
1.39942e-05 -1.63822e-05 -1.64012e-05
1.074e-05 -1.3789e-05 -1.55501e-05
-3.54797e-06 -4.22019e-06 -9.50075e-06
5.39911e-06 1.1385e-06 -9.49904e-06
5.21805e-06 3.22287e-06 -1.00472e-05
-1.74979e-06 -2.83545e-05 -1.78769e-05
1.89206e-06 5.29889e-06 -9.58443e-06
-1.13823e-07 6.105e-06 -1.00387e-05
-3.78492e-06 4.12774e-06 -9.57839e-06
-5.62267e-06 3.03418e-06 -1.02852e-05
-5.16547e-06 1.04067e-06 -9.2136e-06
-7.52724e-06 -6.17391e-08 -1.11724e-05
-4.33437e-06 -8.10277e-07 -8.38184e-06
-3.10858e-06 1.87233e-06 -7.37405e-06
-2.20811e-05 -3.60775e-06 -1.65158e-05
2.34062e-05 -1.5688e-05 -1.78361e-05
-1.5072e-06 2.11679e-05 -1.6682e-05
2.12616e-05 -8.45195e-08 -1.62257e-05
1.7622e-05 -1.6468e-06 -1.55814e-05
1.73477e-05 -4.94167e-06 -1.57706e-05
2.18915e-05 -7.4511e-06 -1.69136e-05
-2.31822e-05 -1.42546e-05 -1.78327e-05
1.73246e-05 1.64887e-06 -1.55085e-05
-1.734e-06 2.8473e-05 -1.78941e-05