# vtk DataFile Version 3.0
vtk output at time 110
ASCII
DATASET UNSTRUCTURED_GRID
POINTS 626 float
-3.68058e-05 0.000978749 0 3.68058e-05 0.000978749 0 -0.000829194 0.00052125 0 
-0.0008235 0.0005 0 -0.000866 0.0004575 0 -0.000866 -0.0004575 0 
-0.0008235 -0.0005 0 -0.000829194 -0.00052125 0 -3.68058e-05 -0.000978749 0 
3.68058e-05 -0.000978749 0 0.000829194 -0.00052125 0 0.000866 -0.0004575 0 
0.000866 0.0004575 0 0.000829194 0.00052125 0 8.5e-05 0 0 
-3.68058e-05 0.000978749 -0.001 3.68058e-05 0.000978749 -0.001 -0.000829194 0.00052125 -0.001 
-0.0008235 0.0005 -0.001 -0.000866 0.0004575 -0.001 -0.000866 -0.0004575 -0.001 
-0.0008235 -0.0005 -0.001 -0.000829194 -0.00052125 -0.001 -3.68058e-05 -0.000978749 -0.001 
3.68058e-05 -0.000978749 -0.001 0.000829194 -0.00052125 -0.001 0.000866 -0.0004575 -0.001 
0.000866 0.0004575 -0.001 0.000829194 0.00052125 -0.001 8.5e-05 0 -0.001 
8.46223e-17 0.0009575 0 -0.000715996 0.000586607 0 -0.000602797 0.000651965 0 
-0.000489599 0.000717321 0 -0.000376401 0.000782678 0 -0.000263202 0.000848036 0 
-0.000150004 0.000913393 0 -0.000835948 0.000469948 0 -0.000866 -0.000326786 0 
-0.000866 -0.000196071 0 -0.000866 -6.53571e-05 0 -0.000866 6.53571e-05 0 
-0.000866 0.000196071 0 -0.000866 0.000326786 0 -0.000835948 -0.000469948 0 
-0.000150004 -0.000913393 0 -0.000263202 -0.000848036 0 -0.000376401 -0.000782678 0 
-0.000489599 -0.000717321 0 -0.000602797 -0.000651965 0 -0.000715996 -0.000586607 0 
8.47648e-17 -0.0009575 0 0.000715996 -0.000586607 0 0.000602797 -0.000651965 0 
0.000489599 -0.000717321 0 0.000376401 -0.000782678 0 0.000263202 -0.000848036 0 
0.000150004 -0.000913393 0 0.000829194 -0.00047875 0 0.000866 0.000326786 0 
0.000866 0.000196071 0 0.000866 6.53571e-05 0 0.000866 -6.53571e-05 0 
0.000866 -0.000196071 0 0.000866 -0.000326786 0 0.000829194 0.00047875 0 
0.000150004 0.000913393 0 0.000263202 0.000848036 0 0.000376401 0.000782678 0 
0.000489599 0.000717321 0 0.000602797 0.000651965 0 0.000715996 0.000586607 0 
5.29966e-05 6.64557e-05 0 -1.89143e-05 8.28689e-05 0 -7.65824e-05 3.68801e-05 0 
-7.65824e-05 -3.68801e-05 0 -1.89143e-05 -8.28689e-05 0 5.29966e-05 -6.64557e-05 0 
8.46223e-17 0.0009575 -0.001 -0.000715996 0.000586607 -0.001 -0.000602797 0.000651965 -0.001 
-0.000489599 0.000717321 -0.001 -0.000376401 0.000782678 -0.001 -0.000263202 0.000848036 -0.001 
-0.000150004 0.000913393 -0.001 -0.000835948 0.000469948 -0.001 -0.000866 -0.000326786 -0.001 
-0.000866 -0.000196071 -0.001 -0.000866 -6.53571e-05 -0.001 -0.000866 6.53571e-05 -0.001 
-0.000866 0.000196071 -0.001 -0.000866 0.000326786 -0.001 -0.000835948 -0.000469948 -0.001 
-0.000150004 -0.000913393 -0.001 -0.000263202 -0.000848036 -0.001 -0.000376401 -0.000782678 -0.001 
-0.000489599 -0.000717321 -0.001 -0.000602797 -0.000651965 -0.001 -0.000715996 -0.000586607 -0.001 
8.47648e-17 -0.0009575 -0.001 0.000715996 -0.000586607 -0.001 0.000602797 -0.000651965 -0.001 
0.000489599 -0.000717321 -0.001 0.000376401 -0.000782678 -0.001 0.000263202 -0.000848036 -0.001 
0.000150004 -0.000913393 -0.001 0.000829194 -0.00047875 -0.001 0.000866 0.000326786 -0.001 
0.000866 0.000196071 -0.001 0.000866 6.53571e-05 -0.001 0.000866 -6.53571e-05 -0.001 
0.000866 -0.000196071 -0.001 0.000866 -0.000326786 -0.001 0.000829194 0.00047875 -0.001 
0.000150004 0.000913393 -0.001 0.000263202 0.000848036 -0.001 0.000376401 0.000782678 -0.001 
0.000489599 0.000717321 -0.001 0.000602797 0.000651965 -0.001 0.000715996 0.000586607 -0.001 
5.29966e-05 6.64557e-05 -0.001 -1.89143e-05 8.28689e-05 -0.001 -7.65824e-05 3.68801e-05 -0.001 
-7.65824e-05 -3.68801e-05 -0.001 -1.89143e-05 -8.28689e-05 -0.001 5.29966e-05 -6.64557e-05 -0.001 
0.000131234 6.38474e-05 0 0.00012964 -6.2443e-05 0 3.13827e-05 0.0001394 0 
3.12554e-05 -0.000136939 0 -0.000140461 8.25467e-19 0 -8.90565e-05 -0.000102707 0 
-9.04142e-05 0.000102872 0 -0.000765769 -0.00025965 0 -0.000756873 0.000262774 0 
-0.00015609 0.000787505 0 -0.000155807 -0.00079355 0 0.000605069 0.000528035 0 
0.000608694 -0.00052497 0 0.000744069 0.000116929 0 -0.000494418 0.000596218 0 
-0.000483866 -0.000584648 0 0.000269496 0.000702219 0 0.000263201 -0.000717324 0 
0.000754429 -0.000127825 0 -0.000748858 5.84659e-07 0 -0.000747838 0.000373886 0 
-0.0006542 0.000324842 0 -0.000645137 0.000210123 0 -0.000550884 0.000274171 0 
-0.000538857 0.000163195 0 -0.00045062 0.000224461 0 -0.000438393 0.000123907 0 
-0.000354088 0.000181668 0 -0.000363908 0.000282171 0 -0.000270361 0.000239477 0 
-0.000279138 0.000337653 0 -0.000188888 0.000294791 0 -0.000196448 0.000393271 0 
-0.000104767 0.000348259 0 -0.000113332 0.000449012 0 -2.01066e-05 0.000403223 0 
-2.89189e-05 0.000507105 0 6.9524e-05 0.000461596 0 -0.000213644 0.000490203 0 
7.33757e-05 0.000357726 0 0.000163331 0.00041299 0 0.000163359 0.000313022 0 
0.000248077 0.000366368 0 0.000250914 0.000265758 0 0.000335709 0.000322266 0 
0.000340555 0.000218148 0 0.000427299 0.000276717 0 0.000431508 0.000173093 0 
0.000328731 0.000425633 0 0.00034586 0.000114823 0 0.000435362 7.05241e-05 0 
0.000350892 1.5455e-05 0 0.000441547 -3.11896e-05 0 0.000353547 -8.47783e-05 0 
0.000445767 -0.000132964 0 0.000356135 -0.000186358 0 0.000449094 -0.000234674 0 
0.000359978 -0.000287876 0 0.00026856 -0.000240545 0 0.000271895 -0.000341045 0 
0.000181792 -0.00029305 0 0.00018533 -0.000392851 0 9.75701e-05 -0.00034483 0 
9.98764e-05 -0.000444884 0 8.75116e-06 -0.000396343 0 1.20916e-05 -0.000500496 0 
-7.83929e-05 -0.000449843 0 -8.1471e-05 -0.000347249 0 -0.000171566 -0.000403733 0 
-0.000169889 -0.000298891 0 -0.000259867 -0.000354132 0 -0.000257696 -0.000249137 0 
-0.00034313 -0.000299896 0 -0.000344514 -0.000199127 0 -0.000434309 -0.000250039 0 
-0.000169832 -0.000505815 0 -0.000435227 -0.000146227 0 0.000280331 -0.000442424 0 
-0.000340889 8.76793e-05 0 -0.000515252 4.06198e-05 0 6.50491e-05 0.000568253 0 
0.00053278 1.74743e-05 0 0.000522071 0.000229831 0 -0.00037162 0.000391659 0 
-0.000255272 -0.000150439 0 -0.000442893 -0.000350705 0 0.000450067 -0.000332559 0 
0.000545175 -0.000276306 0 -0.000527797 -0.000197598 0 0.000105306 -0.000551033 0 
1.45836e-05 -0.000609147 0 0.00017145 0.000214453 0 0.000515525 0.000341711 0 
0.000636086 0.000290368 0 -0.000558657 0.000404468 0 -4.01232e-05 0.000616718 0 
6.60192e-05 0.000696422 0 -0.000101806 0.0002546 0 0.000271142 -3.88908e-05 0 
0.000179455 -0.00018534 0 -8.79553e-05 -0.000254307 0 -0.000749267 -0.000373451 0 
-0.000655941 -0.000323397 0 0.000709746 0.000466718 0 0.000698426 -0.000473086 0 
-5.25801e-05 -0.00084886 0 -4.93005e-05 0.000848038 0 0.000617396 -0.000413362 0 
0.000702056 -0.000369817 0 0.000131459 -0.000679171 0 2.48171e-05 -0.000715924 0 
-0.000664217 -0.00042729 0 -0.000528828 -8.80444e-05 0 -0.000611101 -0.000136672 0 
-0.000426972 -4.45841e-05 0 0.000800669 0.000378216 0 0.000821144 -0.000415062 0 
7.2799e-05 0.00088254 0 6.81831e-05 -0.00087503 0 0.000104963 -0.000788946 0 
-7.40696e-05 -0.000660054 0 0.000126061 0.000809943 0 0.000764361 0.000295682 0 
0.000166862 0.000630623 0 0.000516462 -0.00046707 0 -0.000563585 -0.000389606 0 
-0.000622598 -1.40238e-05 0 0.000629891 0.000171529 0 2.5614e-06 -0.000299794 0 
8.6901e-05 -0.00024329 0 0.000272045 -0.000136982 0 -0.00075148 0.000138321 0 
0.000209366 -0.000599589 0 0.000324913 -0.000630055 0 0.000614044 0.00041245 0 
0.00049651 -0.000573327 0 0.000394822 -0.000507321 0 -0.000173714 -0.000206698 0 
0.000264897 5.63722e-05 0 0.000247997 0.000152811 0 -4.63327e-05 -0.000920208 0 
9.18688e-05 0.000258626 0 -5.54111e-06 0.000290558 0 -0.000184219 0.000201484 0 
-0.000263559 0.000142267 0 -0.000256427 5.13624e-05 0 -0.000336894 -2.06179e-06 0 
-0.000228499 -4.2388e-05 0 -0.00017589 0.000106626 0 -0.000769947 -0.000133367 0 
0.000767591 -0.000500293 0 -5.05874e-05 0.000737978 0 0.000754456 -3.51771e-06 0 
0.00064691 -6.15298e-05 0 0.000630483 -0.00018134 0 0.000749187 -0.000265543 0 
-0.000760805 -0.000462521 0 0.000638155 6.09315e-05 0 -4.46661e-05 0.000922995 0 
-2.37945e-05 0.000207237 0 0.000776979 0.000500181 0 -0.000605691 0.000527596 0 
-0.000377914 -0.000653727 0 -0.000372325 -0.000526022 0 -0.000275829 -0.000589621 0 
-0.000254285 -0.000710579 0 -0.000379307 0.000656222 0 -0.000379818 0.00052718 0 
-0.000266817 0.000721555 0 -0.000150544 0.000668174 0 0.000381963 0.00065079 0 
0.000493113 0.000590432 0 0.000505439 0.000463708 0 -0.000269094 0.000596608 0 
0.000385815 0.000532045 0 0.000283599 0.0005899 0 -0.000176405 -0.000108505 0 
-0.000278769 -0.000475415 0 0.000185395 2.33014e-06 0 0.000186773 0.000517571 0 
0.000540032 -8.68444e-05 0 -0.000600694 -0.000514877 0 -0.00063703 8.98033e-05 0 
-0.000459677 0.000335729 0 -0.000338836 -0.000100751 0 -0.000457327 0.000432721 0 
-8.72007e-06 -0.000210238 0 0.000156073 0.000129496 0 -7.70692e-05 -0.000555049 0 
0.00036091 -0.000389728 0 0.000531628 0.000120564 0 -0.000285451 0.000435562 0 
0.000192719 -0.000494604 0 0.00041642 0.00039368 0 -0.000135943 0.000554637 0 
-0.000170665 -0.000610079 0 -0.000666304 0.000434981 0 -0.000758736 0.000479231 0 
-0.000470189 -0.000458901 0 0.000203433 -8.59809e-05 0 0.000101846 0.000170114 0 
-0.00035513 -0.00040726 0 0.000100184 -0.000165831 0 2.96286e-05 0.00081537 0 
0.000720946 0.000381836 0 -0.000539809 -0.000292001 0 0.00052211 -0.000182426 0 
-6.41339e-05 -0.000753908 0 0.000638039 -0.000299861 0 -0.000605136 -0.000230182 0 
-3.41638e-05 -0.000145561 0 -0.000104037 0.000172396 0 -0.000808575 -0.00042774 0 
-0.000807207 -0.000465052 0 -0.00080817 0.000429771 0 -0.000806589 0.000469738 0 
-9.50634e-05 -0.000178909 0 0.000247777 0.000445058 0 1.48293e-05 -0.000814201 0 
-4.11555e-05 0.000140955 0 0.000276104 -0.000536845 0 0.000765969 -0.000436638 0 
0.000780871 -0.000362769 0 0.000424176 -0.000642018 0 0.00053413 -0.000368009 0 
-0.000416333 4.17911e-05 0 -0.000133891 -6.23822e-05 0 4.2574e-05 0.000206312 0 
[...]
POINT_DATA 626
VECTORS displacement float
-1.74394e-06 3.09566e-05 1.8056e-05
1.73564e-06 3.09757e-05 1.81011e-05
-2.59882e-05 1.69939e-05 1.80881e-05
-2.58428e-05 1.60341e-05 1.80526e-05
-2.77225e-05 1.39739e-05 1.80701e-05
-2.77155e-05 -1.40202e-05 1.80955e-05
-2.5814e-05 -1.60722e-05 1.81069e-05
-2.59844e-05 -1.7012e-05 1.8168e-05
-1.6774e-06 -3.09604e-05 1.80524e-05
1.75544e-06 -3.09619e-05 1.81029e-05
2.59455e-05 -1.69818e-05 1.80445e-05
2.77189e-05 -1.39378e-05 1.80444e-05
2.76743e-05 1.39905e-05 1.80927e-05
2.59169e-05 1.69941e-05 1.8047e-05
0 0 0
-1.74394e-06 3.09566e-05 -1.8056e-05
1.73564e-06 3.09757e-05 -1.81011e-05
-2.59882e-05 1.69939e-05 -1.80881e-05
-2.58428e-05 1.60341e-05 -1.80526e-05
-2.77225e-05 1.39739e-05 -1.80701e-05
-2.77155e-05 -1.40202e-05 -1.80955e-05
-2.5814e-05 -1.60722e-05 -1.81069e-05
-2.59844e-05 -1.7012e-05 -1.8168e-05
-1.6774e-06 -3.09604e-05 -1.80524e-05
1.75544e-06 -3.09619e-05 -1.81029e-05
2.59455e-05 -1.69818e-05 -1.80445e-05
2.77189e-05 -1.39378e-05 -1.80444e-05
2.76743e-05 1.39905e-05 -1.80927e-05
2.59169e-05 1.69941e-05 -1.8047e-05
0 0 0
2.4885e-08 3.01565e-05 1.80352e-05
-2.11424e-05 1.87137e-05 1.75508e-05
-1.72341e-05 1.98354e-05 1.6922e-05
-1.40082e-05 2.1056e-05 1.65562e-05
-1.12078e-05 2.26669e-05 1.65501e-05
-8.52465e-06 2.4835e-05 1.69026e-05
-5.56801e-06 2.76239e-05 1.75385e-05
-2.64517e-05 1.46802e-05 1.80345e-05
-2.67708e-05 -9.01246e-06 1.75785e-05
-2.58084e-05 -5.03607e-06 1.69272e-05
-2.52567e-05 -1.63641e-06 1.65727e-05
-2.52597e-05 1.60805e-06 1.65756e-05
-2.58006e-05 5.02346e-06 1.69254e-05
-2.6757e-05 8.98554e-06 1.7565e-05
-2.64386e-05 -1.47265e-05 1.80632e-05
-5.54127e-06 -2.76384e-05 1.75308e-05
-8.47717e-06 -2.4844e-05 1.69019e-05
-1.1171e-05 -2.26863e-05 1.65574e-05
-1.39719e-05 -2.10891e-05 1.65608e-05
-1.72165e-05 -1.98707e-05 1.69379e-05
-2.1136e-05 -1.87505e-05 1.75633e-05
8.98276e-08 -3.01412e-05 1.80304e-05
2.11258e-05 -1.86261e-05 1.75126e-05
1.72463e-05 -1.97638e-05 1.68741e-05
1.40352e-05 -2.1013e-05 1.65129e-05
1.1226e-05 -2.2595e-05 1.65474e-05
8.5818e-06 -2.47822e-05 1.68754e-05
5.65488e-06 -2.76287e-05 1.75361e-05
2.61264e-05 -1.50607e-05 1.80294e-05
2.67188e-05 8.93934e-06 1.75026e-05
2.57242e-05 5.05019e-06 1.69096e-05
2.52088e-05 1.62353e-06 1.65245e-05
2.52059e-05 -1.59963e-06 1.65228e-05
2.57528e-05 -4.99798e-06 1.68895e-05
2.67009e-05 -8.91809e-06 1.75108e-05
2.61095e-05 1.50619e-05 1.80264e-05
5.63333e-06 2.762e-05 1.75107e-05
8.50918e-06 2.48089e-05 1.69124e-05
1.1218e-05 2.26431e-05 1.65306e-05
1.40058e-05 2.1024e-05 1.6526e-05
1.72233e-05 1.9795e-05 1.68863e-05
2.11168e-05 1.86357e-05 1.75265e-05
0 0 0
0 0 0
0 0 0
0 0 0
0 0 0
0 0 0
2.4885e-08 3.01565e-05 -1.80352e-05
-2.11424e-05 1.87137e-05 -1.75508e-05
-1.72341e-05 1.98354e-05 -1.6922e-05
-1.40082e-05 2.1056e-05 -1.65562e-05
-1.12078e-05 2.26669e-05 -1.65501e-05
-8.52465e-06 2.4835e-05 -1.69026e-05
-5.56801e-06 2.76239e-05 -1.75385e-05
-2.64517e-05 1.46802e-05 -1.80345e-05
-2.67708e-05 -9.01246e-06 -1.75785e-05
-2.58084e-05 -5.03607e-06 -1.69272e-05
-2.52567e-05 -1.63641e-06 -1.65727e-05
-2.52597e-05 1.60805e-06 -1.65756e-05
-2.58006e-05 5.02346e-06 -1.69254e-05
-2.6757e-05 8.98554e-06 -1.7565e-05
-2.64386e-05 -1.47265e-05 -1.80632e-05
-5.54127e-06 -2.76384e-05 -1.75308e-05
-8.47717e-06 -2.4844e-05 -1.69019e-05
-1.1171e-05 -2.26863e-05 -1.65574e-05
-1.39719e-05 -2.10891e-05 -1.65608e-05
-1.72165e-05 -1.98707e-05 -1.69379e-05
-2.1136e-05 -1.87505e-05 -1.75633e-05
8.98276e-08 -3.01412e-05 -1.80304e-05
2.11258e-05 -1.86261e-05 -1.75126e-05
1.72463e-05 -1.97638e-05 -1.68741e-05
1.40352e-05 -2.1013e-05 -1.65129e-05
1.1226e-05 -2.2595e-05 -1.65474e-05
8.5818e-06 -2.47822e-05 -1.68754e-05
5.65488e-06 -2.76287e-05 -1.75361e-05
2.61264e-05 -1.50607e-05 -1.80294e-05
2.67188e-05 8.93934e-06 -1.75026e-05
2.57242e-05 5.05019e-06 -1.69096e-05
2.52088e-05 1.62353e-06 -1.65245e-05
2.52059e-05 -1.59963e-06 -1.65228e-05
2.57528e-05 -4.99798e-06 -1.68895e-05
2.67009e-05 -8.91809e-06 -1.75108e-05
2.61095e-05 1.50619e-05 -1.80264e-05
5.63333e-06 2.762e-05 -1.75107e-05
8.50918e-06 2.48089e-05 -1.69124e-05
1.1218e-05 2.26431e-05 -1.65306e-05
1.40058e-05 2.1024e-05 -1.6526e-05
1.72233e-05 1.9795e-05 -1.68863e-05
2.11168e-05 1.86357e-05 -1.75265e-05
0 0 0
0 0 0
0 0 0
0 0 0
0 0 0
0 0 0
1.7938e-06 8.58801e-07 4.55264e-06
1.73793e-06 -8.25167e-07 4.46119e-06
4.31981e-07 1.84974e-06 4.4955e-06
4.36126e-07 -1.78074e-06 4.35646e-06
-1.8476e-06 2.09649e-08 4.42274e-06
-1.12316e-06 -1.30896e-06 4.15135e-06
-1.15928e-06 1.30688e-06 4.20014e-06
-2.25149e-05 -7.28836e-06 1.70011e-05
-2.21982e-05 7.37225e-06 1.69698e-05
-4.86077e-06 2.29004e-05 1.69382e-05
-4.85828e-06 -2.31336e-05 1.69651e-05
1.74227e-05 1.56367e-05 1.6931e-05
1.75703e-05 -1.55377e-05 1.69403e-05
2.10753e-05 3.16419e-06 1.63256e-05
-1.39544e-05 1.71527e-05 1.64796e-05
-1.35924e-05 -1.67427e-05 1.64112e-05
7.76848e-06 1.98213e-05 1.63324e-05
7.68548e-06 -2.03117e-05 1.64037e-05
2.14742e-05 -3.44408e-06 1.64014e-05
-2.11046e-05 6.58816e-09 1.62479e-05
-2.24221e-05 1.10006e-05 1.74547e-05
-1.87525e-05 9.25548e-06 1.66282e-05
-1.79843e-05 5.79596e-06 1.60375e-05
-1.49852e-05 7.44897e-06 1.54875e-05
-1.42257e-05 4.30809e-06 1.48308e-05
-1.15336e-05 5.74438e-06 1.40958e-05
-1.0859e-05 3.069e-06 1.33746e-05
-8.40119e-06 4.30523e-06 1.24053e-05
-9.05958e-06 7.014e-06 1.34574e-05
-6.20462e-06 5.48896e-06 1.16899e-05
-6.82889e-06 8.25014e-06 1.3081e-05
-4.28175e-06 6.67546e-06 1.14514e-05
-4.80042e-06 9.61075e-06 1.30949e-05
-2.40107e-06 7.99401e-06 1.17239e-05
-2.8131e-06 1.11682e-05 1.3476e-05
-4.75453e-07 9.5961e-06 1.2502e-05
-7.38421e-07 1.2998e-05 1.41428e-05
1.73123e-06 1.15188e-05 1.3536e-05
-5.53517e-06 1.27015e-05 1.4438e-05
1.68522e-06 8.22466e-06 1.17485e-05
4.00452e-06 1.01218e-05 1.3152e-05
3.70566e-06 7.09854e-06 1.14791e-05
6.06792e-06 8.96744e-06 1.31144e-05
5.7673e-06 6.1073e-06 1.17365e-05
8.3588e-06 8.02101e-06 1.34931e-05
8.10633e-06 5.19571e-06 1.25013e-05
1.09549e-05 7.09767e-06 1.4148e-05
1.07469e-05 4.32317e-06 1.35001e-05
8.53127e-06 1.10384e-05 1.44619e-05
7.93835e-06 2.64396e-06 1.17283e-05
1.06469e-05 1.73735e-06 1.31051e-05
7.94934e-06 3.5879e-07 1.14565e-05
1.08073e-05 -7.59178e-07 1.31252e-05
8.11232e-06 -1.93796e-06 1.171e-05
1.10992e-05 -3.31314e-06 1.3485e-05
8.47045e-06 -4.42436e-06 1.2445e-05
1.15047e-05 -6.0034e-06 1.41105e-05
8.95634e-06 -7.13872e-06 1.34291e-05
6.14803e-06 -5.49487e-06 1.16422e-05
6.64507e-06 -8.30158e-06 1.30193e-05
4.10554e-06 -6.58906e-06 1.13118e-05
4.52374e-06 -9.55169e-06 1.29893e-05
2.24248e-06 -7.85894e-06 1.15983e-05
2.48505e-06 -1.10028e-05 1.3352e-05
2.25308e-07 -9.37448e-06 1.23546e-05
3.30039e-07 -1.27709e-05 1.40349e-05
-1.9156e-06 -1.11517e-05 1.33781e-05
-1.84122e-06 -7.92228e-06 1.15831e-05
-4.16826e-06 -9.8757e-06 1.30861e-05
-3.81426e-06 -6.73106e-06 1.1318e-05
-6.34617e-06 -8.66277e-06 1.31004e-05
-5.89179e-06 -5.69849e-06 1.16293e-05
-8.50046e-06 -7.43644e-06 1.33807e-05
-8.16824e-06 -4.72846e-06 1.24096e-05
-1.10966e-05 -6.40332e-06 1.4071e-05
-4.37204e-06 -1.31243e-05 1.44348e-05
-1.08098e-05 -3.651e-06 1.34403e-05
7.22676e-06 -1.13738e-05 1.42741e-05
-7.74235e-06 1.98285e-06 1.14939e-05
-1.32173e-05 1.03515e-06 1.42121e-05
1.72927e-06 1.50841e-05 1.49534e-05
1.37693e-05 4.6228e-07 1.4389e-05
1.38444e-05 6.10064e-06 1.49329e-05
-9.69492e-06 1.01972e-05 1.45337e-05
-5.41645e-06 -3.19792e-06 1.0183e-05
-1.17146e-05 -9.29815e-06 1.48904e-05
1.18834e-05 -8.76099e-06 1.47883e-05
1.47831e-05 -7.47427e-06 1.54045e-05
-1.3961e-05 -5.24436e-06 1.48629e-05
2.79606e-06 -1.45174e-05 1.47974e-05
4.24593e-07 -1.65009e-05 1.5399e-05
3.51872e-06 4.3973e-06 9.58195e-06
1.40118e-05 9.29988e-06 1.54928e-05
1.79323e-05 8.14568e-06 1.63018e-05
-1.56768e-05 1.13963e-05 1.62347e-05
-1.09418e-06 1.67706e-05 1.54965e-05
1.90701e-06 1.96233e-05 1.63122e-05
-2.09204e-06 5.2205e-06 9.59845e-06
5.55439e-06 -7.84667e-07 9.595e-06
3.58624e-06 -3.68386e-06 9.08279e-06
-1.77978e-06 -5.17899e-06 9.45045e-06
-2.24706e-05 -1.10117e-05 1.74754e-05
-1.87998e-05 -9.24222e-06 1.66522e-05
2.11496e-05 1.41659e-05 1.75067e-05
2.07555e-05 -1.43187e-05 1.74367e-05
-1.7647e-06 -2.54486e-05 1.7512e-05
-1.68222e-06 2.54126e-05 1.75167e-05
1.77145e-05 -1.19079e-05 1.66884e-05
2.06474e-05 -1.0752e-05 1.71171e-05
3.77595e-06 -1.89868e-05 1.61406e-05
7.68581e-07 -2.03475e-05 1.64841e-05
-1.94067e-05 -1.26516e-05 1.71443e-05
-1.37323e-05 -2.30713e-06 1.44731e-05
-1.65942e-05 -3.70177e-06 1.54788e-05
-1.03767e-05 -1.09648e-06 1.29532e-05
2.4454e-05 1.10738e-05 1.76527e-05
2.54995e-05 -1.24043e-05 1.78492e-05
2.64935e-06 2.67281e-05 1.76616e-05
2.5211e-06 -2.64157e-05 1.76304e-05
3.33968e-06 -2.30338e-05 1.70303e-05
-2.05407e-06 -1.83215e-05 1.59521e-05
4.05932e-06 2.37933e-05 1.71315e-05
2.2616e-05 8.38003e-06 1.71204e-05
4.61399e-06 1.73149e-05 1.57285e-05
1.44283e-05 -1.31206e-05 1.61386e-05
-1.5789e-05 -1.09857e-05 1.62158e-05
-1.68013e-05 -3.81464e-07 1.53786e-05
1.73074e-05 4.68791e-06 1.57269e-05
6.55259e-08 -6.38783e-06 1.02683e-05
1.74185e-06 -4.84884e-06 9.09329e-06
5.85093e-06 -2.93575e-06 1.03791e-05
-2.1446e-05 3.75087e-06 1.64601e-05
5.72985e-06 -1.62759e-05 1.5509e-05
9.08425e-06 -1.75006e-05 1.59988e-05
1.75736e-05 1.18827e-05 1.66735e-05
1.39955e-05 -1.63836e-05 1.64025e-05
1.07409e-05 -1.37902e-05 1.55513e-05
-3.54825e-06 -4.22052e-06 9.5016e-06
5.39954e-06 1.13859e-06 9.49989e-06
5.21847e-06 3.22313e-06 1.00481e-05
-1.74984e-06 -2.83566e-05 1.78779e-05
1.89221e-06 5.29931e-06 9.58529e-06
-1.13834e-07 6.10549e-06 1.00396e-05
-3.78522e-06 4.12806e-06 9.57925e-06
-5.62313e-06 3.03443e-06 1.02862e-05
-5.16587e-06 1.04075e-06 9.21442e-06
-7.52786e-06 -6.17444e-08 1.11734e-05
-4.3347e-06 -8.10338e-07 8.38259e-06
-3.10881e-06 1.87247e-06 7.3747e-06
-2.2083e-05 -3.60812e-06 1.6517e-05
2.3408e-05 -1.56891e-05 1.78371e-05
-1.50731e-06 2.11696e-05 1.66832e-05
2.12635e-05 -8.4528e-08 1.6227e-05
1.76236e-05 -1.64695e-06 1.55827e-05
1.73492e-05 -4.94211e-06 1.57719e-05
2.18933e-05 -7.45179e-06 1.69148e-05
-2.31839e-05 -1.42556e-05 1.78337e-05
1.73261e-05 1.64902e-06 1.55098e-05
-1.73405e-06 2.84751e-05 1.78951e-05
-4.22103e-07 3.68369e-06 7.49595e-06
2.37737e-05 1.57434e-05 1.78856e-05
-1.74988e-05 1.56435e-05 1.69761e-05
-1.06271e-05 -1.84677e-05 1.62563e-05
-1.01004e-05 -1.43436e-05 1.55729e-05
-7.50842e-06 -1.60962e-05 1.56233e-05
-7.32272e-06 -2.01222e-05 1.63965e-05
-1.07054e-05 1.85368e-05 1.6268e-05
-1.03482e-05 1.43853e-05 1.56206e-05
-7.77327e-06 2.04942e-05 1.64455e-05
-4.25334e-06 1.86113e-05 1.60542e-05
1.07606e-05 1.8347e-05 1.62274e-05
1.38929e-05 1.69363e-05 1.64322e-05
1.40432e-05 1.2974e-05 1.60525e-05
-7.36221e-06 1.62897e-05 1.56398e-05
1.05261e-05 1.45483e-05 1.56465e-05
7.74942e-06 1.60937e-05 1.56152e-05
-3.11669e-06 -1.8989e-06 7.39383e-06
-7.25828e-06 -1.24231e-05 1.46264e-05
3.00887e-06 4.03631e-08 6.60155e-06
4.873e-06 1.35239e-05 1.46193e-05
1.40772e-05 -2.26059e-06 1.45717e-05
-1.72912e-05 -1.52179e-05 1.69467e-05
-1.7368e-05 2.42052e-06 1.55991e-05
-1.22058e-05 8.9127e-06 1.49447e-05
-7.70627e-06 -2.29271e-06 1.15557e-05
-1.24509e-05 1.18136e-05 1.55412e-05
-1.42747e-07 -3.7545e-06 7.55485e-06
2.73043e-06 2.27224e-06 7.25257e-06
-2.00404e-06 -1.46518e-05 1.48093e-05
9.36591e-06 -1.00691e-05 1.43906e-05
1.3862e-05 3.15809e-06 1.45673e-05
-7.34069e-06 1.12004e-05 1.42615e-05
4.99766e-06 -1.27759e-05 1.43705e-05
1.10328e-05 1.04314e-05 1.49209e-05
-3.59676e-06 1.46866e-05 1.49093e-05
-4.63587e-06 -1.66183e-05 1.55501e-05
-1.95087e-05 1.28935e-05 1.71624e-05
-2.31287e-05 1.48593e-05 1.78445e-05
-1.29061e-05 -1.26872e-05 1.58138e-05
3.76109e-06 -1.58624e-06 7.90766e-06
1.76452e-06 2.9225e-06 7.08506e-06
-9.2313e-06 -1.06104e-05 1.4533e-05
1.72787e-06 -2.82337e-06 6.93168e-06
9.94781e-07 2.41188e-05 1.73096e-05
2.13697e-05 1.11948e-05 1.72998e-05
-1.46659e-05 -7.95408e-06 1.54866e-05
1.37093e-05 -4.78675e-06 1.46919e-05
-1.91003e-06 -2.17648e-05 1.68039e-05
1.8062e-05 -8.41981e-06 1.6342e-05
-1.66804e-05 -6.32913e-06 1.57837e-05
-4.32931e-07 -1.92245e-06 4.7989e-06
-1.80551e-06 2.99566e-06 7.17782e-06
-2.50539e-05 -1.29828e-05 1.79233e-05
-2.51291e-05 -1.45084e-05 1.80031e-05
-2.50471e-05 1.30347e-05 1.79071e-05
-2.51199e-05 1.46511e-05 1.79832e-05
-1.64858e-06 -3.12508e-06 7.21056e-06
6.32851e-06 1.13694e-05 1.40778e-05
5.33734e-07 -2.40881e-05 1.73034e-05
-5.22814e-07 1.80967e-06 4.64542e-06
7.40813e-06 -1.4345e-05 1.51537e-05
2.33047e-05 -1.32104e-05 1.77299e-05
2.36346e-05 -1.05385e-05 1.7492e-05
1.19895e-05 -1.82126e-05 1.62946e-05
1.47314e-05 -1.01475e-05 1.57969e-05
-1.0028e-05 1.00133e-06 1.27558e-05
-1.74013e-06 -8.15958e-07 4.72387e-06
7.69122e-07 3.70864e-06 7.57383e-06
2.34325e-06 -1.99731e-06 6.55588e-06
2.01583e-05 5.89839e-06 1.64549e-05
5.07049e-06 2.05978e-05 1.64973e-05
3.42121e-07 -2.76822e-05 1.78551e-05
-1.73135e-06 7.0916e-07 4.60673e-06
-3.21175e-06 6.23094e-07 6.82476e-06
3.57749e-06 1.47553e-06 7.63732e-06
4.99233e-07 2.8326e-05 1.79283e-05
2.47622e-05 1.37352e-05 1.79195e-05
-2.03301e-05 1.5537e-05 1.74302e-05
1.17879e-06 1.36457e-06 4.46025e-06
-2.06414e-05 -1.57296e-05 1.75288e-05
-1.90006e-05 -2.32241e-06 1.59475e-05
-1.95609e-05 -5.58552e-06 1.63335e-05
9.0575e-07 -3.248e-06 7.00674e-06
-4.36639e-06 -1.97911e-05 1.63231e-05
-7.93801e-06 1.38357e-05 1.51024e-05
1.16583e-06 -1.30427e-06 4.33968e-06
1.19355e-05 -1.12294e-05 1.52935e-05
6.13351e-06 -2.26981e-05 1.68218e-05
-1.45235e-05 1.43566e-05 1.63249e-05
7.9298e-06 1.33225e-05 1.49493e-05
1.7938e-06 8.58801e-07 -4.55264e-06
1.73793e-06 -8.25167e-07 -4.46119e-06
4.31981e-07 1.84974e-06 -4.4955e-06
4.36126e-07 -1.78074e-06 -4.35646e-06
-1.8476e-06 2.09649e-08 -4.42274e-06
-1.12316e-06 -1.30896e-06 -4.15135e-06
-1.15928e-06 1.30688e-06 -4.20014e-06
-2.25149e-05 -7.28836e-06 -1.70011e-05
-2.21982e-05 7.37225e-06 -1.69698e-05
-4.86077e-06 2.29004e-05 -1.69382e-05
-4.85828e-06 -2.31336e-05 -1.69651e-05
1.74227e-05 1.56367e-05 -1.6931e-05
1.75703e-05 -1.55377e-05 -1.69403e-05
2.10753e-05 3.16419e-06 -1.63256e-05
-1.39544e-05 1.71527e-05 -1.64796e-05
-1.35924e-05 -1.67427e-05 -1.64112e-05
7.76848e-06 1.98213e-05 -1.63324e-05
7.68548e-06 -2.03117e-05 -1.64037e-05
2.14742e-05 -3.44408e-06 -1.64014e-05
-2.11046e-05 6.58816e-09 -1.62479e-05
-2.24221e-05 1.10006e-05 -1.74547e-05
-1.87525e-05 9.25548e-06 -1.66282e-05
-1.79843e-05 5.79596e-06 -1.60375e-05
-1.49852e-05 7.44897e-06 -1.54875e-05
-1.42257e-05 4.30809e-06 -1.48308e-05
-1.15336e-05 5.74438e-06 -1.40958e-05
-1.0859e-05 3.069e-06 -1.33746e-05
-8.40119e-06 4.30523e-06 -1.24053e-05
-9.05958e-06 7.014e-06 -1.34574e-05
-6.20462e-06 5.48896e-06 -1.16899e-05
-6.82889e-06 8.25014e-06 -1.3081e-05
-4.28175e-06 6.67546e-06 -1.14514e-05
-4.80042e-06 9.61075e-06 -1.30949e-05
-2.40107e-06 7.99401e-06 -1.17239e-05
-2.8131e-06 1.11682e-05 -1.3476e-05
-4.75453e-07 9.5961e-06 -1.2502e-05
-7.38421e-07 1.2998e-05 -1.41428e-05
1.73123e-06 1.15188e-05 -1.3536e-05
-5.53517e-06 1.27015e-05 -1.4438e-05
1.68522e-06 8.22466e-06 -1.17485e-05
4.00452e-06 1.01218e-05 -1.3152e-05
3.70566e-06 7.09854e-06 -1.14791e-05
6.06792e-06 8.96744e-06 -1.31144e-05
5.7673e-06 6.1073e-06 -1.17365e-05
8.3588e-06 8.02101e-06 -1.34931e-05
8.10633e-06 5.19571e-06 -1.25013e-05
1.09549e-05 7.09767e-06 -1.4148e-05
1.07469e-05 4.32317e-06 -1.35001e-05
8.53127e-06 1.10384e-05 -1.44619e-05
7.93835e-06 2.64396e-06 -1.17283e-05
1.06469e-05 1.73735e-06 -1.31051e-05
7.94934e-06 3.5879e-07 -1.14565e-05
1.08073e-05 -7.59178e-07 -1.31252e-05
8.11232e-06 -1.93796e-06 -1.171e-05
1.10992e-05 -3.31314e-06 -1.3485e-05
8.47045e-06 -4.42436e-06 -1.2445e-05
1.15047e-05 -6.0034e-06 -1.41105e-05
8.95634e-06 -7.13872e-06 -1.34291e-05
6.14803e-06 -5.49487e-06 -1.16422e-05
6.64507e-06 -8.30158e-06 -1.30193e-05
4.10554e-06 -6.58906e-06 -1.13118e-05
4.52374e-06 -9.55169e-06 -1.29893e-05
2.24248e-06 -7.85894e-06 -1.15983e-05
2.48505e-06 -1.10028e-05 -1.3352e-05
2.25308e-07 -9.37448e-06 -1.23546e-05
3.30039e-07 -1.27709e-05 -1.40349e-05
-1.9156e-06 -1.11517e-05 -1.33781e-05
-1.84122e-06 -7.92228e-06 -1.15831e-05
-4.16826e-06 -9.8757e-06 -1.30861e-05
-3.81426e-06 -6.73106e-06 -1.1318e-05
-6.34617e-06 -8.66277e-06 -1.31004e-05
-5.89179e-06 -5.69849e-06 -1.16293e-05
-8.50046e-06 -7.43644e-06 -1.33807e-05
-8.16824e-06 -4.72846e-06 -1.24096e-05
-1.10966e-05 -6.40332e-06 -1.4071e-05
-4.37204e-06 -1.31243e-05 -1.44348e-05
-1.08098e-05 -3.651e-06 -1.34403e-05
7.22676e-06 -1.13738e-05 -1.42741e-05
-7.74235e-06 1.98285e-06 -1.14939e-05
-1.32173e-05 1.03515e-06 -1.42121e-05
1.72927e-06 1.50841e-05 -1.49534e-05
1.37693e-05 4.6228e-07 -1.4389e-05
1.38444e-05 6.10064e-06 -1.49329e-05
-9.69492e-06 1.01972e-05 -1.45337e-05
-5.41645e-06 -3.19792e-06 -1.0183e-05
-1.17146e-05 -9.29815e-06 -1.48904e-05
1.18834e-05 -8.76099e-06 -1.47883e-05
1.47831e-05 -7.47427e-06 -1.54045e-05
-1.3961e-05 -5.24436e-06 -1.48629e-05
2.79606e-06 -1.45174e-05 -1.47974e-05
4.24593e-07 -1.65009e-05 -1.5399e-05
3.51872e-06 4.3973e-06 -9.58195e-06
1.40118e-05 9.29988e-06 -1.54928e-05
1.79323e-05 8.14568e-06 -1.63018e-05
-1.56768e-05 1.13963e-05 -1.62347e-05
-1.09418e-06 1.67706e-05 -1.54965e-05
1.90701e-06 1.96233e-05 -1.63122e-05
-2.09204e-06 5.2205e-06 -9.59845e-06
5.55439e-06 -7.84667e-07 -9.595e-06
3.58624e-06 -3.68386e-06 -9.08279e-06
-1.77978e-06 -5.17899e-06 -9.45045e-06
-2.24706e-05 -1.10117e-05 -1.74754e-05
-1.87998e-05 -9.24222e-06 -1.66522e-05
2.11496e-05 1.41659e-05 -1.75067e-05
2.07555e-05 -1.43187e-05 -1.74367e-05
-1.7647e-06 -2.54486e-05 -1.7512e-05
-1.68222e-06 2.54126e-05 -1.75167e-05
1.77145e-05 -1.19079e-05 -1.66884e-05
2.06474e-05 -1.0752e-05 -1.71171e-05
3.77595e-06 -1.89868e-05 -1.61406e-05
7.68581e-07 -2.03475e-05 -1.64841e-05
-1.94067e-05 -1.26516e-05 -1.71443e-05
-1.37323e-05 -2.30713e-06 -1.44731e-05
-1.65942e-05 -3.70177e-06 -1.54788e-05
-1.03767e-05 -1.09648e-06 -1.29532e-05
2.4454e-05 1.10738e-05 -1.76527e-05
2.54995e-05 -1.24043e-05 -1.78492e-05
2.64935e-06 2.67281e-05 -1.76616e-05
2.5211e-06 -2.64157e-05 -1.76304e-05
3.33968e-06 -2.30338e-05 -1.70303e-05
-2.05407e-06 -1.83215e-05 -1.59521e-05
4.05932e-06 2.37933e-05 -1.71315e-05
2.2616e-05 8.38003e-06 -1.71204e-05
4.61399e-06 1.73149e-05 -1.57285e-05
1.44283e-05 -1.31206e-05 -1.61386e-05
-1.5789e-05 -1.09857e-05 -1.62158e-05
-1.68013e-05 -3.81464e-07 -1.53786e-05
1.73074e-05 4.68791e-06 -1.57269e-05
6.55259e-08 -6.38783e-06 -1.02683e-05
1.74185e-06 -4.84884e-06 -9.09329e-06
5.85093e-06 -2.93575e-06 -1.03791e-05
-2.1446e-05 3.75087e-06 -1.64601e-05
5.72985e-06 -1.62759e-05 -1.5509e-05
9.08425e-06 -1.75006e-05 -1.59988e-05
1.75736e-05 1.18827e-05 -1.66735e-05
1.39955e-05 -1.63836e-05 -1.64025e-05
1.07409e-05 -1.37902e-05 -1.55513e-05
-3.54825e-06 -4.22052e-06 -9.5016e-06
5.39954e-06 1.13859e-06 -9.49989e-06
5.21847e-06 3.22313e-06 -1.00481e-05
-1.74984e-06 -2.83566e-05 -1.78779e-05
1.89221e-06 5.29931e-06 -9.58529e-06
-1.13834e-07 6.10549e-06 -1.00396e-05
-3.78522e-06 4.12806e-06 -9.57925e-06
-5.62313e-06 3.03443e-06 -1.02862e-05
-5.16587e-06 1.04075e-06 -9.21442e-06
-7.52786e-06 -6.17444e-08 -1.11734e-05
-4.3347e-06 -8.10338e-07 -8.38259e-06
-3.10881e-06 1.87247e-06 -7.3747e-06
-2.2083e-05 -3.60812e-06 -1.6517e-05
2.3408e-05 -1.56891e-05 -1.78371e-05
-1.50731e-06 2.11696e-05 -1.66832e-05
2.12635e-05 -8.4528e-08 -1.6227e-05
1.76236e-05 -1.64695e-06 -1.55827e-05
1.73492e-05 -4.94211e-06 -1.57719e-05
2.18933e-05 -7.45179e-06 -1.69148e-05
-2.31839e-05 -1.42556e-05 -1.78337e-05
1.73261e-05 1.64902e-06 -1.55098e-05
-1.73405e-06 2.84751e-05 -1.78951e-05
-4.22103e-07 3.68369e-06 -7.49595e-06