# vtk DataFile Version 3.0
vtk output at time 2000
ASCII
DATASET UNSTRUCTURED_GRID
POINTS 626 float
-3.68058e-05 0.000978749 0 3.68058e-05 0.000978749 0 -0.000829194 0.00052125 0 
-0.0008235 0.0005 0 -0.000866 0.0004575 0 -0.000866 -0.0004575 0 
-0.0008235 -0.0005 0 -0.000829194 -0.00052125 0 -3.68058e-05 -0.000978749 0 
3.68058e-05 -0.000978749 0 0.000829194 -0.00052125 0 0.000866 -0.0004575 0 
0.000866 0.0004575 0 0.000829194 0.00052125 0 8.5e-05 0 0 
-3.68058e-05 0.000978749 -0.001 3.68058e-05 0.000978749 -0.001 -0.000829194 0.00052125 -0.001 
-0.0008235 0.0005 -0.001 -0.000866 0.0004575 -0.001 -0.000866 -0.0004575 -0.001 
-0.0008235 -0.0005 -0.001 -0.000829194 -0.00052125 -0.001 -3.68058e-05 -0.000978749 -0.001 
3.68058e-05 -0.000978749 -0.001 0.000829194 -0.00052125 -0.001 0.000866 -0.0004575 -0.001 
0.000866 0.0004575 -0.001 0.000829194 0.00052125 -0.001 8.5e-05 0 -0.001 
8.46223e-17 0.0009575 0 -0.000715996 0.000586607 0 -0.000602797 0.000651965 0 
-0.000489599 0.000717321 0 -0.000376401 0.000782678 0 -0.000263202 0.000848036 0 
-0.000150004 0.000913393 0 -0.000835948 0.000469948 0 -0.000866 -0.000326786 0 
-0.000866 -0.000196071 0 -0.000866 -6.53571e-05 0 -0.000866 6.53571e-05 0 
-0.000866 0.000196071 0 -0.000866 0.000326786 0 -0.000835948 -0.000469948 0 
-0.000150004 -0.000913393 0 -0.000263202 -0.000848036 0 -0.000376401 -0.000782678 0 
-0.000489599 -0.000717321 0 -0.000602797 -0.000651965 0 -0.000715996 -0.000586607 0 
8.47648e-17 -0.0009575 0 0.000715996 -0.000586607 0 0.000602797 -0.000651965 0 
0.000489599 -0.000717321 0 0.000376401 -0.000782678 0 0.000263202 -0.000848036 0 
0.000150004 -0.000913393 0 0.000829194 -0.00047875 0 0.000866 0.000326786 0 
0.000866 0.000196071 0 0.000866 6.53571e-05 0 0.000866 -6.53571e-05 0 
0.000866 -0.000196071 0 0.000866 -0.000326786 0 0.000829194 0.00047875 0 
0.000150004 0.000913393 0 0.000263202 0.000848036 0 0.000376401 0.000782678 0 
0.000489599 0.000717321 0 0.000602797 0.000651965 0 0.000715996 0.000586607 0 
5.29966e-05 6.64557e-05 0 -1.89143e-05 8.28689e-05 0 -7.65824e-05 3.68801e-05 0 
-7.65824e-05 -3.68801e-05 0 -1.89143e-05 -8.28689e-05 0 5.29966e-05 -6.64557e-05 0 
8.46223e-17 0.0009575 -0.001 -0.000715996 0.000586607 -0.001 -0.000602797 0.000651965 -0.001 
-0.000489599 0.000717321 -0.001 -0.000376401 0.000782678 -0.001 -0.000263202 0.000848036 -0.001 
-0.000150004 0.000913393 -0.001 -0.000835948 0.000469948 -0.001 -0.000866 -0.000326786 -0.001 
-0.000866 -0.000196071 -0.001 -0.000866 -6.53571e-05 -0.001 -0.000866 6.53571e-05 -0.001 
-0.000866 0.000196071 -0.001 -0.000866 0.000326786 -0.001 -0.000835948 -0.000469948 -0.001 
-0.000150004 -0.000913393 -0.001 -0.000263202 -0.000848036 -0.001 -0.000376401 -0.000782678 -0.001 
-0.000489599 -0.000717321 -0.001 -0.000602797 -0.000651965 -0.001 -0.000715996 -0.000586607 -0.001 
8.47648e-17 -0.0009575 -0.001 0.000715996 -0.000586607 -0.001 0.000602797 -0.000651965 -0.001 
0.000489599 -0.000717321 -0.001 0.000376401 -0.000782678 -0.001 0.000263202 -0.000848036 -0.001 
0.000150004 -0.000913393 -0.001 0.000829194 -0.00047875 -0.001 0.000866 0.000326786 -0.001 
0.000866 0.000196071 -0.001 0.000866 6.53571e-05 -0.001 0.000866 -6.53571e-05 -0.001 
0.000866 -0.000196071 -0.001 0.000866 -0.000326786 -0.001 0.000829194 0.00047875 -0.001 
0.000150004 0.000913393 -0.001 0.000263202 0.000848036 -0.001 0.000376401 0.000782678 -0.001 
0.000489599 0.000717321 -0.001 0.000602797 0.000651965 -0.001 0.000715996 0.000586607 -0.001 
5.29966e-05 6.64557e-05 -0.001 -1.89143e-05 8.28689e-05 -0.001 -7.65824e-05 3.68801e-05 -0.001 
-7.65824e-05 -3.68801e-05 -0.001 -1.89143e-05 -8.28689e-05 -0.001 5.29966e-05 -6.64557e-05 -0.001 
0.000131234 6.38474e-05 0 0.00012964 -6.2443e-05 0 3.13827e-05 0.0001394 0 
3.12554e-05 -0.000136939 0 -0.000140461 8.25467e-19 0 -8.90565e-05 -0.000102707 0 
-9.04142e-05 0.000102872 0 -0.000765769 -0.00025965 0 -0.000756873 0.000262774 0 
-0.00015609 0.000787505 0 -0.000155807 -0.00079355 0 0.000605069 0.000528035 0 
0.000608694 -0.00052497 0 0.000744069 0.000116929 0 -0.000494418 0.000596218 0 
-0.000483866 -0.000584648 0 0.000269496 0.000702219 0 0.000263201 -0.000717324 0 
0.000754429 -0.000127825 0 -0.000748858 5.84659e-07 0 -0.000747838 0.000373886 0 
-0.0006542 0.000324842 0 -0.000645137 0.000210123 0 -0.000550884 0.000274171 0 
-0.000538857 0.000163195 0 -0.00045062 0.000224461 0 -0.000438393 0.000123907 0 
-0.000354088 0.000181668 0 -0.000363908 0.000282171 0 -0.000270361 0.000239477 0 
-0.000279138 0.000337653 0 -0.000188888 0.000294791 0 -0.000196448 0.000393271 0 
-0.000104767 0.000348259 0 -0.000113332 0.000449012 0 -2.01066e-05 0.000403223 0 
-2.89189e-05 0.000507105 0 6.9524e-05 0.000461596 0 -0.000213644 0.000490203 0 
7.33757e-05 0.000357726 0 0.000163331 0.00041299 0 0.000163359 0.000313022 0 
0.000248077 0.000366368 0 0.000250914 0.000265758 0 0.000335709 0.000322266 0 
0.000340555 0.000218148 0 0.000427299 0.000276717 0 0.000431508 0.000173093 0 
0.000328731 0.000425633 0 0.00034586 0.000114823 0 0.000435362 7.05241e-05 0 
0.000350892 1.5455e-05 0 0.000441547 -3.11896e-05 0 0.000353547 -8.47783e-05 0 
0.000445767 -0.000132964 0 0.000356135 -0.000186358 0 0.000449094 -0.000234674 0 
0.000359978 -0.000287876 0 0.00026856 -0.000240545 0 0.000271895 -0.000341045 0 
0.000181792 -0.00029305 0 0.00018533 -0.000392851 0 9.75701e-05 -0.00034483 0 
9.98764e-05 -0.000444884 0 8.75116e-06 -0.000396343 0 1.20916e-05 -0.000500496 0 
-7.83929e-05 -0.000449843 0 -8.1471e-05 -0.000347249 0 -0.000171566 -0.000403733 0 
-0.000169889 -0.000298891 0 -0.000259867 -0.000354132 0 -0.000257696 -0.000249137 0 
-0.00034313 -0.000299896 0 -0.000344514 -0.000199127 0 -0.000434309 -0.000250039 0 
-0.000169832 -0.000505815 0 -0.000435227 -0.000146227 0 0.000280331 -0.000442424 0 
-0.000340889 8.76793e-05 0 -0.000515252 4.06198e-05 0 6.50491e-05 0.000568253 0 
0.00053278 1.74743e-05 0 0.000522071 0.000229831 0 -0.00037162 0.000391659 0 
-0.000255272 -0.000150439 0 -0.000442893 -0.000350705 0 0.000450067 -0.000332559 0 
0.000545175 -0.000276306 0 -0.000527797 -0.000197598 0 0.000105306 -0.000551033 0 
1.45836e-05 -0.000609147 0 0.00017145 0.000214453 0 0.000515525 0.000341711 0 
0.000636086 0.000290368 0 -0.000558657 0.000404468 0 -4.01232e-05 0.000616718 0 
6.60192e-05 0.000696422 0 -0.000101806 0.0002546 0 0.000271142 -3.88908e-05 0 
0.000179455 -0.00018534 0 -8.79553e-05 -0.000254307 0 -0.000749267 -0.000373451 0 
-0.000655941 -0.000323397 0 0.000709746 0.000466718 0 0.000698426 -0.000473086 0 
-5.25801e-05 -0.00084886 0 -4.93005e-05 0.000848038 0 0.000617396 -0.000413362 0 
0.000702056 -0.000369817 0 0.000131459 -0.000679171 0 2.48171e-05 -0.000715924 0 
-0.000664217 -0.00042729 0 -0.000528828 -8.80444e-05 0 -0.000611101 -0.000136672 0 
-0.000426972 -4.45841e-05 0 0.000800669 0.000378216 0 0.000821144 -0.000415062 0 
7.2799e-05 0.00088254 0 6.81831e-05 -0.00087503 0 0.000104963 -0.000788946 0 
-7.40696e-05 -0.000660054 0 0.000126061 0.000809943 0 0.000764361 0.000295682 0 
0.000166862 0.000630623 0 0.000516462 -0.00046707 0 -0.000563585 -0.000389606 0 
-0.000622598 -1.40238e-05 0 0.000629891 0.000171529 0 2.5614e-06 -0.000299794 0 
8.6901e-05 -0.00024329 0 0.000272045 -0.000136982 0 -0.00075148 0.000138321 0 
0.000209366 -0.000599589 0 0.000324913 -0.000630055 0 0.000614044 0.00041245 0 
0.00049651 -0.000573327 0 0.000394822 -0.000507321 0 -0.000173714 -0.000206698 0 
0.000264897 5.63722e-05 0 0.000247997 0.000152811 0 -4.63327e-05 -0.000920208 0 
9.18688e-05 0.000258626 0 -5.54111e-06 0.000290558 0 -0.000184219 0.000201484 0 
-0.000263559 0.000142267 0 -0.000256427 5.13624e-05 0 -0.000336894 -2.06179e-06 0 
-0.000228499 -4.2388e-05 0 -0.00017589 0.000106626 0 -0.000769947 -0.000133367 0 
0.000767591 -0.000500293 0 -5.05874e-05 0.000737978 0 0.000754456 -3.51771e-06 0 
0.00064691 -6.15298e-05 0 0.000630483 -0.00018134 0 0.000749187 -0.000265543 0 
-0.000760805 -0.000462521 0 0.000638155 6.09315e-05 0 -4.46661e-05 0.000922995 0 
-2.37945e-05 0.000207237 0 0.000776979 0.000500181 0 -0.000605691 0.000527596 0 
-0.000377914 -0.000653727 0 -0.000372325 -0.000526022 0 -0.000275829 -0.000589621 0 
-0.000254285 -0.000710579 0 -0.000379307 0.000656222 0 -0.000379818 0.00052718 0 
-0.000266817 0.000721555 0 -0.000150544 0.000668174 0 0.000381963 0.00065079 0 
0.000493113 0.000590432 0 0.000505439 0.000463708 0 -0.000269094 0.000596608 0 
0.000385815 0.000532045 0 0.000283599 0.0005899 0 -0.000176405 -0.000108505 0 
-0.000278769 -0.000475415 0 0.000185395 2.33014e-06 0 0.000186773 0.000517571 0 
0.000540032 -8.68444e-05 0 -0.000600694 -0.000514877 0 -0.00063703 8.98033e-05 0 
-0.000459677 0.000335729 0 -0.000338836 -0.000100751 0 -0.000457327 0.000432721 0 
-8.72007e-06 -0.000210238 0 0.000156073 0.000129496 0 -7.70692e-05 -0.000555049 0 
0.00036091 -0.000389728 0 0.000531628 0.000120564 0 -0.000285451 0.000435562 0 
0.000192719 -0.000494604 0 0.00041642 0.00039368 0 -0.000135943 0.000554637 0 
-0.000170665 -0.000610079 0 -0.000666304 0.000434981 0 -0.000758736 0.000479231 0 
-0.000470189 -0.000458901 0 0.000203433 -8.59809e-05 0 0.000101846 0.000170114 0 
-0.00035513 -0.00040726 0 0.000100184 -0.000165831 0 2.96286e-05 0.00081537 0 
0.000720946 0.000381836 0 -0.000539809 -0.000292001 0 0.00052211 -0.000182426 0 
-6.41339e-05 -0.000753908 0 0.000638039 -0.000299861 0 -0.000605136 -0.000230182 0 
-3.41638e-05 -0.000145561 0 -0.000104037 0.000172396 0 -0.000808575 -0.00042774 0 
-0.000807207 -0.000465052 0 -0.00080817 0.000429771 0 -0.000806589 0.000469738 0 
-9.50634e-05 -0.000178909 0 0.000247777 0.000445058 0 1.48293e-05 -0.000814201 0 
-4.11555e-05 0.000140955 0 0.000276104 -0.000536845 0 0.000765969 -0.000436638 0 
0.000780871 -0.000362769 0 0.000424176 -0.000642018 0 0.00053413 -0.000368009 0 
-0.000416333 4.17911e-05 0 -0.000133891 -6.23822e-05 0 4.2574e-05 0.000206312 0 
[...]
POINT_DATA 626
VECTORS displacement float
-1.74395e-06 3.0954e-05 1.80548e-05
1.73566e-06 3.0973e-05 1.80999e-05
-2.59859e-05 1.69926e-05 1.80868e-05
-2.58405e-05 1.60328e-05 1.80514e-05
-2.77203e-05 1.39726e-05 1.80688e-05
-2.77132e-05 -1.40189e-05 1.80943e-05
-2.58117e-05 -1.60709e-05 1.81056e-05
-2.59821e-05 -1.70107e-05 1.81668e-05
-1.67741e-06 -3.09577e-05 1.80512e-05
1.75546e-06 -3.09592e-05 1.81017e-05
2.59432e-05 -1.69805e-05 1.80433e-05
2.77166e-05 -1.39364e-05 1.80431e-05
2.76721e-05 1.39892e-05 1.80914e-05
2.59146e-05 1.69928e-05 1.80458e-05
0 0 0
-1.74395e-06 3.0954e-05 -1.80548e-05
1.73566e-06 3.0973e-05 -1.80999e-05
-2.59859e-05 1.69926e-05 -1.80868e-05
-2.58405e-05 1.60328e-05 -1.80514e-05
-2.77203e-05 1.39726e-05 -1.80688e-05
-2.77132e-05 -1.40189e-05 -1.80943e-05
-2.58117e-05 -1.60709e-05 -1.81056e-05
-2.59821e-05 -1.70107e-05 -1.81668e-05
-1.67741e-06 -3.09577e-05 -1.80512e-05
1.75546e-06 -3.09592e-05 -1.81017e-05
2.59432e-05 -1.69805e-05 -1.80433e-05
2.77166e-05 -1.39364e-05 -1.80431e-05
2.76721e-05 1.39892e-05 -1.80914e-05
2.59146e-05 1.69928e-05 -1.80458e-05
0 0 0
2.48963e-08 3.01539e-05 1.8034e-05
-2.11402e-05 1.87121e-05 1.75495e-05
-1.72321e-05 1.98335e-05 1.69205e-05
-1.40067e-05 2.10538e-05 1.65546e-05
-1.12067e-05 2.26644e-05 1.65485e-05
-8.52396e-06 2.48324e-05 1.69011e-05
-5.56775e-06 2.76212e-05 1.75372e-05
-2.64494e-05 1.46789e-05 1.80332e-05
-2.67683e-05 -9.01132e-06 1.75771e-05
-2.58058e-05 -5.03534e-06 1.69257e-05
-2.5254e-05 -1.63616e-06 1.65711e-05
-2.52569e-05 1.6078e-06 1.6574e-05
-2.5798e-05 5.02274e-06 1.69239e-05
-2.67545e-05 8.98441e-06 1.75637e-05
-2.64364e-05 -1.47252e-05 1.8062e-05
-5.54101e-06 -2.76357e-05 1.75294e-05
-8.47647e-06 -2.48414e-05 1.69004e-05
-1.11699e-05 -2.26838e-05 1.65558e-05
-1.39703e-05 -2.10868e-05 1.65592e-05
-1.72146e-05 -1.98688e-05 1.69364e-05
-2.11338e-05 -1.87489e-05 1.7562e-05
8.98425e-08 -3.01386e-05 1.80291e-05
2.11236e-05 -1.86245e-05 1.75112e-05
1.72443e-05 -1.97618e-05 1.68725e-05
1.40336e-05 -2.10108e-05 1.65113e-05
1.12249e-05 -2.25925e-05 1.65458e-05
8.58112e-06 -2.47796e-05 1.68739e-05
5.65463e-06 -2.76259e-05 1.75347e-05
2.61242e-05 -1.50594e-05 1.80281e-05
2.67164e-05 8.93819e-06 1.75012e-05
2.57216e-05 5.04946e-06 1.69081e-05
2.52061e-05 1.62327e-06 1.65229e-05
2.52032e-05 -1.59939e-06 1.65212e-05
2.57502e-05 -4.99725e-06 1.6888e-05
2.66984e-05 -8.91695e-06 1.75094e-05
2.61072e-05 1.50606e-05 1.80252e-05
5.63309e-06 2.76173e-05 1.75093e-05
8.50849e-06 2.48063e-05 1.69109e-05
1.12169e-05 2.26406e-05 1.6529e-05
1.40042e-05 2.10217e-05 1.65244e-05
1.72213e-05 1.97931e-05 1.68848e-05
2.11146e-05 1.86342e-05 1.75251e-05
0 0 0
0 0 0
0 0 0
0 0 0
0 0 0
0 0 0
2.48963e-08 3.01539e-05 -1.8034e-05
-2.11402e-05 1.87121e-05 -1.75495e-05
-1.72321e-05 1.98335e-05 -1.69205e-05
-1.40067e-05 2.10538e-05 -1.65546e-05
-1.12067e-05 2.26644e-05 -1.65485e-05
-8.52396e-06 2.48324e-05 -1.69011e-05
-5.56775e-06 2.76212e-05 -1.75372e-05
-2.64494e-05 1.46789e-05 -1.80332e-05
-2.67683e-05 -9.01132e-06 -1.75771e-05
-2.58058e-05 -5.03534e-06 -1.69257e-05
-2.5254e-05 -1.63616e-06 -1.65711e-05
-2.52569e-05 1.6078e-06 -1.6574e-05
-2.5798e-05 5.02274e-06 -1.69239e-05
-2.67545e-05 8.98441e-06 -1.75637e-05
-2.64364e-05 -1.47252e-05 -1.8062e-05
-5.54101e-06 -2.76357e-05 -1.75294e-05
-8.47647e-06 -2.48414e-05 -1.69004e-05
-1.11699e-05 -2.26838e-05 -1.65558e-05
-1.39703e-05 -2.10868e-05 -1.65592e-05
-1.72146e-05 -1.98688e-05 -1.69364e-05
-2.11338e-05 -1.87489e-05 -1.7562e-05
8.98425e-08 -3.01386e-05 -1.80291e-05
2.11236e-05 -1.86245e-05 -1.75112e-05
1.72443e-05 -1.97618e-05 -1.68725e-05
1.40336e-05 -2.10108e-05 -1.65113e-05
1.12249e-05 -2.25925e-05 -1.65458e-05
8.58112e-06 -2.47796e-05 -1.68739e-05
5.65463e-06 -2.76259e-05 -1.75347e-05
2.61242e-05 -1.50594e-05 -1.80281e-05
2.67164e-05 8.93819e-06 -1.75012e-05
2.57216e-05 5.04946e-06 -1.69081e-05
2.52061e-05 1.62327e-06 -1.65229e-05
2.52032e-05 -1.59939e-06 -1.65212e-05
2.57502e-05 -4.99725e-06 -1.6888e-05
2.66984e-05 -8.91695e-06 -1.75094e-05
2.61072e-05 1.50606e-05 -1.80252e-05
5.63309e-06 2.76173e-05 -1.75093e-05
8.50849e-06 2.48063e-05 -1.69109e-05
1.12169e-05 2.26406e-05 -1.6529e-05
1.40042e-05 2.10217e-05 -1.65244e-05
1.72213e-05 1.97931e-05 -1.68848e-05
2.11146e-05 1.86342e-05 -1.75251e-05
0 0 0
0 0 0
0 0 0
0 0 0
0 0 0
0 0 0
1.79365e-06 8.58732e-07 4.55215e-06
1.73779e-06 -8.25101e-07 4.46071e-06
4.31947e-07 1.8496e-06 4.49502e-06
4.36091e-07 -1.7806e-06 4.35599e-06
-1.84746e-06 2.09627e-08 4.42227e-06
-1.12307e-06 -1.30885e-06 4.15091e-06
-1.15919e-06 1.30678e-06 4.19969e-06
-2.25126e-05 -7.28751e-06 1.69996e-05
-2.2196e-05 7.3714e-06 1.69683e-05
-4.86036e-06 2.2898e-05 1.69367e-05
-4.85788e-06 -2.31312e-05 1.69636e-05
1.74209e-05 1.56352e-05 1.69295e-05
1.75684e-05 -1.55361e-05 1.69388e-05
2.10731e-05 3.1638e-06 1.6324e-05
-1.39528e-05 1.71509e-05 1.6478e-05
-1.35909e-05 -1.67409e-05 1.64096e-05
7.76769e-06 1.98191e-05 1.63309e-05
7.68471e-06 -2.03095e-05 1.64021e-05
2.14718e-05 -3.44365e-06 1.63998e-05
-2.11023e-05 6.58808e-09 1.62463e-05
-2.24199e-05 1.09995e-05 1.74533e-05
-1.87505e-05 9.2545e-06 1.66267e-05
-1.79824e-05 5.79532e-06 1.60359e-05
-1.49836e-05 7.44817e-06 1.5486e-05
-1.42241e-05 4.30762e-06 1.48293e-05
-1.15323e-05 5.74376e-06 1.40943e-05
-1.08578e-05 3.06867e-06 1.33732e-05
-8.4003e-06 4.30478e-06 1.2404e-05
-9.0586e-06 7.01325e-06 1.34559e-05
-6.20397e-06 5.48839e-06 1.16886e-05
-6.82815e-06 8.24926e-06 1.30795e-05
-4.2813e-06 6.67477e-06 1.14501e-05
-4.7999e-06 9.60971e-06 1.30935e-05
-2.40082e-06 7.99317e-06 1.17226e-05
-2.81279e-06 1.1167e-05 1.34745e-05
-4.75399e-07 9.59508e-06 1.25006e-05
-7.38337e-07 1.29966e-05 1.41413e-05
1.73104e-06 1.15175e-05 1.35346e-05
-5.53456e-06 1.27001e-05 1.44365e-05
1.68504e-06 8.2238e-06 1.17472e-05
4.00409e-06 1.01207e-05 1.31505e-05
3.70527e-06 7.0978e-06 1.14779e-05
6.06727e-06 8.96647e-06 1.31129e-05
5.7667e-06 6.10666e-06 1.17352e-05
8.3579e-06 8.02015e-06 1.34916e-05
8.10548e-06 5.19515e-06 1.24999e-05
1.09538e-05 7.0969e-06 1.41465e-05
1.07457e-05 4.3227e-06 1.34986e-05
8.53034e-06 1.10372e-05 1.44603e-05
7.93752e-06 2.64369e-06 1.1727e-05
1.06458e-05 1.73716e-06 1.31036e-05
7.94852e-06 3.58753e-07 1.14552e-05
1.08062e-05 -7.59096e-07 1.31237e-05
8.11147e-06 -1.93776e-06 1.17087e-05
1.1098e-05 -3.31278e-06 1.34835e-05
8.46955e-06 -4.42389e-06 1.24437e-05
1.15035e-05 -6.00275e-06 1.4109e-05
8.95538e-06 -7.13795e-06 1.34276e-05
6.14739e-06 -5.4943e-06 1.16409e-05
6.64435e-06 -8.30068e-06 1.30179e-05
4.10512e-06 -6.58837e-06 1.13106e-05
4.52326e-06 -9.55066e-06 1.29879e-05
2.24225e-06 -7.85812e-06 1.1597e-05
2.48478e-06 -1.10017e-05 1.33505e-05
2.25287e-07 -9.37349e-06 1.23532e-05
3.30008e-07 -1.27695e-05 1.40334e-05
-1.91539e-06 -1.11505e-05 1.33766e-05
-1.84103e-06 -7.92146e-06 1.15818e-05
-4.16781e-06 -9.87464e-06 1.30846e-05
-3.81386e-06 -6.73036e-06 1.13168e-05
-6.34549e-06 -8.66184e-06 1.30989e-05
-5.89118e-06 -5.6979e-06 1.1628e-05
-8.49954e-06 -7.43564e-06 1.33793e-05
-8.16738e-06 -4.72796e-06 1.24083e-05
-1.10954e-05 -6.40264e-06 1.40695e-05
-4.37156e-06 -1.31229e-05 1.44333e-05
-1.08086e-05 -3.65061e-06 1.34388e-05
7.22597e-06 -1.13725e-05 1.42726e-05
-7.74155e-06 1.98265e-06 1.14926e-05
-1.32158e-05 1.03504e-06 1.42106e-05
1.72909e-06 1.50825e-05 1.49518e-05
1.37678e-05 4.62228e-07 1.43874e-05
1.38429e-05 6.09998e-06 1.49314e-05
-9.69386e-06 1.01961e-05 1.45321e-05
-5.41591e-06 -3.1976e-06 1.01819e-05
-1.17134e-05 -9.29715e-06 1.48889e-05
1.18821e-05 -8.76004e-06 1.47868e-05
1.47815e-05 -7.47346e-06 1.5403e-05
-1.39595e-05 -5.24379e-06 1.48613e-05
2.79577e-06 -1.45159e-05 1.47959e-05
4.24556e-07 -1.64991e-05 1.53974e-05
3.51837e-06 4.39686e-06 9.58089e-06
1.40103e-05 9.29888e-06 1.54913e-05
1.79305e-05 8.1448e-06 1.63003e-05
-1.56752e-05 1.13951e-05 1.62332e-05
-1.09407e-06 1.67688e-05 1.5495e-05
1.90683e-06 1.96212e-05 1.63107e-05
-2.09183e-06 5.21999e-06 9.59738e-06
5.55385e-06 -7.8459e-07 9.59393e-06
3.58589e-06 -3.6835e-06 9.08178e-06
-1.77961e-06 -5.17849e-06 9.4494e-06
-2.24684e-05 -1.10106e-05 1.74741e-05
-1.87978e-05 -9.24125e-06 1.66508e-05
2.11475e-05 1.41646e-05 1.75054e-05
2.07534e-05 -1.43174e-05 1.74353e-05
-1.76459e-06 -2.54461e-05 1.75107e-05
-1.68212e-06 2.54101e-05 1.75153e-05
1.77127e-05 -1.19067e-05 1.66869e-05
2.06454e-05 -1.07509e-05 1.71157e-05
3.77558e-06 -1.89848e-05 1.61391e-05
7.68521e-07 -2.03454e-05 1.64826e-05
-1.94047e-05 -1.26503e-05 1.71429e-05
-1.37308e-05 -2.30688e-06 1.44716e-05
-1.65924e-05 -3.70135e-06 1.54772e-05
-1.03756e-05 -1.09636e-06 1.29518e-05
2.44517e-05 1.10726e-05 1.76514e-05
2.54972e-05 -1.2403e-05 1.78479e-05
2.64923e-06 2.67255e-05 1.76603e-05
2.52098e-06 -2.64131e-05 1.76291e-05
3.33942e-06 -2.30315e-05 1.70288e-05
-2.05385e-06 -1.83195e-05 1.59506e-05
4.05902e-06 2.37909e-05 1.71301e-05
2.26137e-05 8.37908e-06 1.7119e-05
4.61352e-06 1.7313e-05 1.5727e-05
1.44267e-05 -1.31192e-05 1.61371e-05
-1.57874e-05 -1.09845e-05 1.62143e-05
-1.67994e-05 -3.81419e-07 1.5377e-05
1.73056e-05 4.68738e-06 1.57253e-05
6.5521e-08 -6.38718e-06 1.02672e-05
1.74168e-06 -4.84837e-06 9.09228e-06
5.85035e-06 -2.93545e-06 1.03779e-05
-2.14437e-05 3.75042e-06 1.64585e-05
5.72924e-06 -1.62741e-05 1.55074e-05
9.08327e-06 -1.74986e-05 1.59972e-05
1.75718e-05 1.18814e-05 1.6672e-05
1.39939e-05 -1.63819e-05 1.64009e-05
1.07397e-05 -1.37887e-05 1.55498e-05
-3.5479e-06 -4.22011e-06 9.50054e-06
5.39901e-06 1.13847e-06 9.49883e-06
5.21794e-06 3.22281e-06 1.0047e-05
-1.74977e-06 -2.8354e-05 1.78766e-05
1.89202e-06 5.29878e-06 9.58422e-06
-1.13821e-07 6.10488e-06 1.00385e-05
-3.78484e-06 4.12766e-06 9.57818e-06
-5.62256e-06 3.03412e-06 1.0285e-05
-5.16537e-06 1.04065e-06 9.2134e-06
-7.52708e-06 -6.17378e-08 1.11721e-05
-4.33429e-06 -8.10262e-07 8.38166e-06
-3.10853e-06 1.8723e-06 7.3739e-06
-2.20807e-05 -3.60766e-06 1.65155e-05
2.34057e-05 -1.56877e-05 1.78359e-05
-1.50717e-06 2.11674e-05 1.66817e-05
2.12612e-05 -8.45174e-08 1.62254e-05
1.76217e-05 -1.64676e-06 1.55811e-05
1.73473e-05 -4.94156e-06 1.57703e-05
2.18911e-05 -7.45093e-06 1.69133e-05
-2.31818e-05 -1.42543e-05 1.78324e-05
1.73242e-05 1.64883e-06 1.55082e-05
-1.73399e-06 2.84725e-05 1.78938e-05
-4.22063e-07 3.68335e-06 7.49513e-06
2.37715e-05 1.57421e-05 1.78843e-05
-1.7497e-05 1.56419e-05 1.69746e-05
-1.0626e-05 -1.84657e-05 1.62547e-05
-1.00993e-05 -1.4342e-05 1.55713e-05
-7.5076e-06 -1.60945e-05 1.56217e-05
-7.32197e-06 -2.012e-05 1.63949e-05
-1.07042e-05 1.85348e-05 1.62664e-05
-1.03471e-05 1.43838e-05 1.5619e-05
-7.77248e-06 2.04919e-05 1.64439e-05
-4.2529e-06 1.86093e-05 1.60526e-05
1.07594e-05 1.8345e-05 1.62258e-05
1.38913e-05 1.69345e-05 1.64307e-05
1.40416e-05 1.29726e-05 1.6051e-05
-7.36141e-06 1.62879e-05 1.56382e-05
1.05249e-05 1.45467e-05 1.56449e-05
7.74858e-06 1.60919e-05 1.56136e-05
-3.11641e-06 -1.89873e-06 7.39302e-06
-7.25748e-06 -1.24217e-05 1.46248e-05
3.00861e-06 4.03594e-08 6.60083e-06
4.87247e-06 1.35224e-05 1.46178e-05
1.40757e-05 -2.26034e-06 1.45701e-05
-1.72894e-05 -1.52164e-05 1.69452e-05
-1.73661e-05 2.42025e-06 1.55975e-05
-1.22044e-05 8.91174e-06 1.49432e-05
-7.70547e-06 -2.29247e-06 1.15544e-05
-1.24495e-05 1.18124e-05 1.55397e-05
-1.42733e-07 -3.75416e-06 7.55402e-06
2.73018e-06 2.27204e-06 7.25177e-06
-2.00382e-06 -1.46502e-05 1.48077e-05
9.36489e-06 -1.0068e-05 1.43891e-05
1.38604e-05 3.15774e-06 1.45658e-05
-7.33988e-06 1.11991e-05 1.426e-05
4.99711e-06 -1.27745e-05 1.4369e-05
1.10316e-05 1.04303e-05 1.49193e-05
-3.59637e-06 1.4685e-05 1.49077e-05
-4.63537e-06 -1.66165e-05 1.55485e-05
-1.95067e-05 1.28922e-05 1.7161e-05
-2.31265e-05 1.48579e-05 1.78432e-05
-1.29047e-05 -1.26858e-05 1.58122e-05
3.76074e-06 -1.5861e-06 7.90678e-06
1.76436e-06 2.92223e-06 7.08429e-06
-9.23029e-06 -1.06093e-05 1.45315e-05
1.72771e-06 -2.82311e-06 6.93092e-06
9.94721e-07 2.41164e-05 1.73082e-05
2.13676e-05 1.11936e-05 1.72984e-05
-1.46643e-05 -7.95323e-06 1.54851e-05
1.37078e-05 -4.78622e-06 1.46903e-05
-1.90985e-06 -2.17626e-05 1.68025e-05
1.80601e-05 -8.4189e-06 1.63405e-05
-1.66786e-05 -6.32844e-06 1.57822e-05
-4.32894e-07 -1.92229e-06 4.79838e-06
-1.80534e-06 2.99539e-06 7.17704e-06
-2.50516e-05 -1.29816e-05 1.79221e-05
-2.51268e-05 -1.45071e-05 1.80019e-05
-2.50448e-05 1.30335e-05 1.79058e-05
-2.51177e-05 1.46498e-05 1.7982e-05
-1.64843e-06 -3.1248e-06 7.20977e-06
6.32783e-06 1.13682e-05 1.40763e-05
5.33706e-07 -2.40857e-05 1.7302e-05
-5.2277e-07 1.80952e-06 4.64492e-06
7.40732e-06 -1.43434e-05 1.51521e-05
2.33025e-05 -1.32091e-05 1.77286e-05
2.36323e-05 -1.05374e-05 1.74906e-05
1.19882e-05 -1.82106e-05 1.6293e-05
1.47299e-05 -1.01465e-05 1.57953e-05
-1.00269e-05 1.00123e-06 1.27544e-05
-1.73999e-06 -8.15891e-07 4.72337e-06
7.69052e-07 3.70829e-06 7.573e-06
2.34304e-06 -1.99713e-06 6.55516e-06
2.01562e-05 5.89771e-06 1.64534e-05
5.07001e-06 2.05956e-05 1.64958e-05
3.42117e-07 -2.76796e-05 1.78538e-05
-1.7312e-06 7.09102e-07 4.60624e-06
-3.21146e-06 6.23039e-07 6.82401e-06
3.57716e-06 1.47539e-06 7.63648e-06
4.99224e-07 2.83234e-05 1.79271e-05
2.476e-05 1.37339e-05 1.79182e-05
-2.0328e-05 1.55356e-05 1.74288e-05
1.17869e-06 1.36445e-06 4.45977e-06
-2.06393e-05 -1.57282e-05 1.75274e-05
-1.89985e-05 -2.32214e-06 1.59459e-05
-1.95588e-05 -5.58488e-06 1.6332e-05
9.05669e-07 -3.24771e-06 7.00597e-06
-4.36595e-06 -1.97889e-05 1.63216e-05
-7.93713e-06 1.38342e-05 1.51008e-05
1.16573e-06 -1.30417e-06 4.33921e-06
1.19342e-05 -1.12282e-05 1.52919e-05
6.13299e-06 -2.26957e-05 1.68203e-05
-1.45219e-05 1.43551e-05 1.63234e-05
7.92893e-06 1.3321e-05 1.49477e-05
1.79365e-06 8.58732e-07 -4.55215e-06
1.73779e-06 -8.25101e-07 -4.46071e-06
4.31947e-07 1.8496e-06 -4.49502e-06
4.36091e-07 -1.7806e-06 -4.35599e-06
-1.84746e-06 2.09627e-08 -4.42227e-06
-1.12307e-06 -1.30885e-06 -4.15091e-06
-1.15919e-06 1.30678e-06 -4.19969e-06
-2.25126e-05 -7.28751e-06 -1.69996e-05
-2.2196e-05 7.3714e-06 -1.69683e-05
-4.86036e-06 2.2898e-05 -1.69367e-05
-4.85788e-06 -2.31312e-05 -1.69636e-05
1.74209e-05 1.56352e-05 -1.69295e-05
1.75684e-05 -1.55361e-05 -1.69388e-05
2.10731e-05 3.1638e-06 -1.6324e-05
-1.39528e-05 1.71509e-05 -1.6478e-05
-1.35909e-05 -1.67409e-05 -1.64096e-05
7.76769e-06 1.98191e-05 -1.63309e-05
7.68471e-06 -2.03095e-05 -1.64021e-05
2.14718e-05 -3.44365e-06 -1.63998e-05
-2.11023e-05 6.58808e-09 -1.62463e-05
-2.24199e-05 1.09995e-05 -1.74533e-05
-1.87505e-05 9.2545e-06 -1.66267e-05
-1.79824e-05 5.79532e-06 -1.60359e-05
-1.49836e-05 7.44817e-06 -1.5486e-05
-1.42241e-05 4.30762e-06 -1.48293e-05
-1.15323e-05 5.74376e-06 -1.40943e-05
-1.08578e-05 3.06867e-06 -1.33732e-05
-8.4003e-06 4.30478e-06 -1.2404e-05
-9.0586e-06 7.01325e-06 -1.34559e-05
-6.20397e-06 5.48839e-06 -1.16886e-05
-6.82815e-06 8.24926e-06 -1.30795e-05
-4.2813e-06 6.67477e-06 -1.14501e-05
-4.7999e-06 9.60971e-06 -1.30935e-05
-2.40082e-06 7.99317e-06 -1.17226e-05
-2.81279e-06 1.1167e-05 -1.34745e-05
-4.75399e-07 9.59508e-06 -1.25006e-05
-7.38337e-07 1.29966e-05 -1.41413e-05
1.73104e-06 1.15175e-05 -1.35346e-05
-5.53456e-06 1.27001e-05 -1.44365e-05
1.68504e-06 8.2238e-06 -1.17472e-05
4.00409e-06 1.01207e-05 -1.31505e-05
3.70527e-06 7.0978e-06 -1.14779e-05
6.06727e-06 8.96647e-06 -1.31129e-05
5.7667e-06 6.10666e-06 -1.17352e-05
8.3579e-06 8.02015e-06 -1.34916e-05
8.10548e-06 5.19515e-06 -1.24999e-05
1.09538e-05 7.0969e-06 -1.41465e-05
1.07457e-05 4.3227e-06 -1.34986e-05
8.53034e-06 1.10372e-05 -1.44603e-05
7.93752e-06 2.64369e-06 -1.1727e-05
1.06458e-05 1.73716e-06 -1.31036e-05
7.94852e-06 3.58753e-07 -1.14552e-05
1.08062e-05 -7.59096e-07 -1.31237e-05
8.11147e-06 -1.93776e-06 -1.17087e-05
1.1098e-05 -3.31278e-06 -1.34835e-05
8.46955e-06 -4.42389e-06 -1.24437e-05
1.15035e-05 -6.00275e-06 -1.4109e-05
8.95538e-06 -7.13795e-06 -1.34276e-05
6.14739e-06 -5.4943e-06 -1.16409e-05
6.64435e-06 -8.30068e-06 -1.30179e-05
4.10512e-06 -6.58837e-06 -1.13106e-05
4.52326e-06 -9.55066e-06 -1.29879e-05
2.24225e-06 -7.85812e-06 -1.1597e-05
2.48478e-06 -1.10017e-05 -1.33505e-05
2.25287e-07 -9.37349e-06 -1.23532e-05
3.30008e-07 -1.27695e-05 -1.40334e-05
-1.91539e-06 -1.11505e-05 -1.33766e-05
-1.84103e-06 -7.92146e-06 -1.15818e-05
-4.16781e-06 -9.87464e-06 -1.30846e-05
-3.81386e-06 -6.73036e-06 -1.13168e-05
-6.34549e-06 -8.66184e-06 -1.30989e-05
-5.89118e-06 -5.6979e-06 -1.1628e-05
-8.49954e-06 -7.43564e-06 -1.33793e-05
-8.16738e-06 -4.72796e-06 -1.24083e-05
-1.10954e-05 -6.40264e-06 -1.40695e-05
-4.37156e-06 -1.31229e-05 -1.44333e-05
-1.08086e-05 -3.65061e-06 -1.34388e-05
7.22597e-06 -1.13725e-05 -1.42726e-05
-7.74155e-06 1.98265e-06 -1.14926e-05
-1.32158e-05 1.03504e-06 -1.42106e-05
1.72909e-06 1.50825e-05 -1.49518e-05
1.37678e-05 4.62228e-07 -1.43874e-05
1.38429e-05 6.09998e-06 -1.49314e-05
-9.69386e-06 1.01961e-05 -1.45321e-05
-5.41591e-06 -3.1976e-06 -1.01819e-05
-1.17134e-05 -9.29715e-06 -1.48889e-05
1.18821e-05 -8.76004e-06 -1.47868e-05
1.47815e-05 -7.47346e-06 -1.5403e-05
-1.39595e-05 -5.24379e-06 -1.48613e-05
2.79577e-06 -1.45159e-05 -1.47959e-05
4.24556e-07 -1.64991e-05 -1.53974e-05
3.51837e-06 4.39686e-06 -9.58089e-06
1.40103e-05 9.29888e-06 -1.54913e-05
1.79305e-05 8.1448e-06 -1.63003e-05
-1.56752e-05 1.13951e-05 -1.62332e-05
-1.09407e-06 1.67688e-05 -1.5495e-05
1.90683e-06 1.96212e-05 -1.63107e-05
-2.09183e-06 5.21999e-06 -9.59738e-06
5.55385e-06 -7.8459e-07 -9.59393e-06
3.58589e-06 -3.6835e-06 -9.08178e-06
-1.77961e-06 -5.17849e-06 -9.4494e-06
-2.24684e-05 -1.10106e-05 -1.74741e-05
-1.87978e-05 -9.24125e-06 -1.66508e-05
2.11475e-05 1.41646e-05 -1.75054e-05
2.07534e-05 -1.43174e-05 -1.74353e-05
-1.76459e-06 -2.54461e-05 -1.75107e-05
-1.68212e-06 2.54101e-05 -1.75153e-05
1.77127e-05 -1.19067e-05 -1.66869e-05
2.06454e-05 -1.07509e-05 -1.71157e-05
3.77558e-06 -1.89848e-05 -1.61391e-05
7.68521e-07 -2.03454e-05 -1.64826e-05
-1.94047e-05 -1.26503e-05 -1.71429e-05
-1.37308e-05 -2.30688e-06 -1.44716e-05
-1.65924e-05 -3.70135e-06 -1.54772e-05
-1.03756e-05 -1.09636e-06 -1.29518e-05
2.44517e-05 1.10726e-05 -1.76514e-05
2.54972e-05 -1.2403e-05 -1.78479e-05
2.64923e-06 2.67255e-05 -1.76603e-05
2.52098e-06 -2.64131e-05 -1.76291e-05
3.33942e-06 -2.30315e-05 -1.70288e-05
-2.05385e-06 -1.83195e-05 -1.59506e-05
4.05902e-06 2.37909e-05 -1.71301e-05
2.26137e-05 8.37908e-06 -1.7119e-05
4.61352e-06 1.7313e-05 -1.5727e-05
1.44267e-05 -1.31192e-05 -1.61371e-05
-1.57874e-05 -1.09845e-05 -1.62143e-05
-1.67994e-05 -3.81419e-07 -1.5377e-05
1.73056e-05 4.68738e-06 -1.57253e-05
6.5521e-08 -6.38718e-06 -1.02672e-05
1.74168e-06 -4.84837e-06 -9.09228e-06
5.85035e-06 -2.93545e-06 -1.03779e-05
-2.14437e-05 3.75042e-06 -1.64585e-05
5.72924e-06 -1.62741e-05 -1.55074e-05
9.08327e-06 -1.74986e-05 -1.59972e-05
1.75718e-05 1.18814e-05 -1.6672e-05
1.39939e-05 -1.63819e-05 -1.64009e-05
1.07397e-05 -1.37887e-05 -1.55498e-05
-3.5479e-06 -4.22011e-06 -9.50054e-06
5.39901e-06 1.13847e-06 -9.49883e-06
5.21794e-06 3.22281e-06 -1.0047e-05
-1.74977e-06 -2.8354e-05 -1.78766e-05
1.89202e-06 5.29878e-06 -9.58422e-06
-1.13821e-07 6.10488e-06 -1.00385e-05
-3.78484e-06 4.12766e-06 -9.57818e-06
-5.62256e-06 3.03412e-06 -1.0285e-05
-5.16537e-06 1.04065e-06 -9.2134e-06
-7.52708e-06 -6.17378e-08 -1.11721e-05
-4.33429e-06 -8.10262e-07 -8.38166e-06
-3.10853e-06 1.8723e-06 -7.3739e-06
-2.20807e-05 -3.60766e-06 -1.65155e-05
2.34057e-05 -1.56877e-05 -1.78359e-05
-1.50717e-06 2.11674e-05 -1.66817e-05
2.12612e-05 -8.45174e-08 -1.62254e-05
1.76217e-05 -1.64676e-06 -1.55811e-05
1.73473e-05 -4.94156e-06 -1.57703e-05
2.18911e-05 -7.45093e-06 -1.69133e-05
-2.31818e-05 -1.42543e-05 -1.78324e-05
1.73242e-05 1.64883e-06 -1.55082e-05
-1.73399e-06 2.84725e-05 -1.78938e-05