# vtk DataFile Version 3.0
vtk output at time 170
ASCII
DATASET UNSTRUCTURED_GRID
POINTS 626 float
-3.68058e-05 0.000978749 0 3.68058e-05 0.000978749 0 -0.000829194 0.00052125 0 
-0.0008235 0.0005 0 -0.000866 0.0004575 0 -0.000866 -0.0004575 0 
-0.0008235 -0.0005 0 -0.000829194 -0.00052125 0 -3.68058e-05 -0.000978749 0 
3.68058e-05 -0.000978749 0 0.000829194 -0.00052125 0 0.000866 -0.0004575 0 
0.000866 0.0004575 0 0.000829194 0.00052125 0 8.5e-05 0 0 
-3.68058e-05 0.000978749 -0.001 3.68058e-05 0.000978749 -0.001 -0.000829194 0.00052125 -0.001 
-0.0008235 0.0005 -0.001 -0.000866 0.0004575 -0.001 -0.000866 -0.0004575 -0.001 
-0.0008235 -0.0005 -0.001 -0.000829194 -0.00052125 -0.001 -3.68058e-05 -0.000978749 -0.001 
3.68058e-05 -0.000978749 -0.001 0.000829194 -0.00052125 -0.001 0.000866 -0.0004575 -0.001 
0.000866 0.0004575 -0.001 0.000829194 0.00052125 -0.001 8.5e-05 0 -0.001 
8.46223e-17 0.0009575 0 -0.000715996 0.000586607 0 -0.000602797 0.000651965 0 
-0.000489599 0.000717321 0 -0.000376401 0.000782678 0 -0.000263202 0.000848036 0 
-0.000150004 0.000913393 0 -0.000835948 0.000469948 0 -0.000866 -0.000326786 0 
-0.000866 -0.000196071 0 -0.000866 -6.53571e-05 0 -0.000866 6.53571e-05 0 
-0.000866 0.000196071 0 -0.000866 0.000326786 0 -0.000835948 -0.000469948 0 
-0.000150004 -0.000913393 0 -0.000263202 -0.000848036 0 -0.000376401 -0.000782678 0 
-0.000489599 -0.000717321 0 -0.000602797 -0.000651965 0 -0.000715996 -0.000586607 0 
8.47648e-17 -0.0009575 0 0.000715996 -0.000586607 0 0.000602797 -0.000651965 0 
0.000489599 -0.000717321 0 0.000376401 -0.000782678 0 0.000263202 -0.000848036 0 
0.000150004 -0.000913393 0 0.000829194 -0.00047875 0 0.000866 0.000326786 0 
0.000866 0.000196071 0 0.000866 6.53571e-05 0 0.000866 -6.53571e-05 0 
0.000866 -0.000196071 0 0.000866 -0.000326786 0 0.000829194 0.00047875 0 
0.000150004 0.000913393 0 0.000263202 0.000848036 0 0.000376401 0.000782678 0 
0.000489599 0.000717321 0 0.000602797 0.000651965 0 0.000715996 0.000586607 0 
5.29966e-05 6.64557e-05 0 -1.89143e-05 8.28689e-05 0 -7.65824e-05 3.68801e-05 0 
-7.65824e-05 -3.68801e-05 0 -1.89143e-05 -8.28689e-05 0 5.29966e-05 -6.64557e-05 0 
8.46223e-17 0.0009575 -0.001 -0.000715996 0.000586607 -0.001 -0.000602797 0.000651965 -0.001 
-0.000489599 0.000717321 -0.001 -0.000376401 0.000782678 -0.001 -0.000263202 0.000848036 -0.001 
-0.000150004 0.000913393 -0.001 -0.000835948 0.000469948 -0.001 -0.000866 -0.000326786 -0.001 
-0.000866 -0.000196071 -0.001 -0.000866 -6.53571e-05 -0.001 -0.000866 6.53571e-05 -0.001 
-0.000866 0.000196071 -0.001 -0.000866 0.000326786 -0.001 -0.000835948 -0.000469948 -0.001 
-0.000150004 -0.000913393 -0.001 -0.000263202 -0.000848036 -0.001 -0.000376401 -0.000782678 -0.001 
-0.000489599 -0.000717321 -0.001 -0.000602797 -0.000651965 -0.001 -0.000715996 -0.000586607 -0.001 
8.47648e-17 -0.0009575 -0.001 0.000715996 -0.000586607 -0.001 0.000602797 -0.000651965 -0.001 
0.000489599 -0.000717321 -0.001 0.000376401 -0.000782678 -0.001 0.000263202 -0.000848036 -0.001 
0.000150004 -0.000913393 -0.001 0.000829194 -0.00047875 -0.001 0.000866 0.000326786 -0.001 
0.000866 0.000196071 -0.001 0.000866 6.53571e-05 -0.001 0.000866 -6.53571e-05 -0.001 
0.000866 -0.000196071 -0.001 0.000866 -0.000326786 -0.001 0.000829194 0.00047875 -0.001 
0.000150004 0.000913393 -0.001 0.000263202 0.000848036 -0.001 0.000376401 0.000782678 -0.001 
0.000489599 0.000717321 -0.001 0.000602797 0.000651965 -0.001 0.000715996 0.000586607 -0.001 
5.29966e-05 6.64557e-05 -0.001 -1.89143e-05 8.28689e-05 -0.001 -7.65824e-05 3.68801e-05 -0.001 
-7.65824e-05 -3.68801e-05 -0.001 -1.89143e-05 -8.28689e-05 -0.001 5.29966e-05 -6.64557e-05 -0.001 
0.000131234 6.38474e-05 0 0.00012964 -6.2443e-05 0 3.13827e-05 0.0001394 0 
3.12554e-05 -0.000136939 0 -0.000140461 8.25467e-19 0 -8.90565e-05 -0.000102707 0 
-9.04142e-05 0.000102872 0 -0.000765769 -0.00025965 0 -0.000756873 0.000262774 0 
-0.00015609 0.000787505 0 -0.000155807 -0.00079355 0 0.000605069 0.000528035 0 
0.000608694 -0.00052497 0 0.000744069 0.000116929 0 -0.000494418 0.000596218 0 
-0.000483866 -0.000584648 0 0.000269496 0.000702219 0 0.000263201 -0.000717324 0 
0.000754429 -0.000127825 0 -0.000748858 5.84659e-07 0 -0.000747838 0.000373886 0 
-0.0006542 0.000324842 0 -0.000645137 0.000210123 0 -0.000550884 0.000274171 0 
-0.000538857 0.000163195 0 -0.00045062 0.000224461 0 -0.000438393 0.000123907 0 
-0.000354088 0.000181668 0 -0.000363908 0.000282171 0 -0.000270361 0.000239477 0 
-0.000279138 0.000337653 0 -0.000188888 0.000294791 0 -0.000196448 0.000393271 0 
-0.000104767 0.000348259 0 -0.000113332 0.000449012 0 -2.01066e-05 0.000403223 0 
-2.89189e-05 0.000507105 0 6.9524e-05 0.000461596 0 -0.000213644 0.000490203 0 
7.33757e-05 0.000357726 0 0.000163331 0.00041299 0 0.000163359 0.000313022 0 
0.000248077 0.000366368 0 0.000250914 0.000265758 0 0.000335709 0.000322266 0 
0.000340555 0.000218148 0 0.000427299 0.000276717 0 0.000431508 0.000173093 0 
0.000328731 0.000425633 0 0.00034586 0.000114823 0 0.000435362 7.05241e-05 0 
0.000350892 1.5455e-05 0 0.000441547 -3.11896e-05 0 0.000353547 -8.47783e-05 0 
0.000445767 -0.000132964 0 0.000356135 -0.000186358 0 0.000449094 -0.000234674 0 
0.000359978 -0.000287876 0 0.00026856 -0.000240545 0 0.000271895 -0.000341045 0 
0.000181792 -0.00029305 0 0.00018533 -0.000392851 0 9.75701e-05 -0.00034483 0 
9.98764e-05 -0.000444884 0 8.75116e-06 -0.000396343 0 1.20916e-05 -0.000500496 0 
-7.83929e-05 -0.000449843 0 -8.1471e-05 -0.000347249 0 -0.000171566 -0.000403733 0 
-0.000169889 -0.000298891 0 -0.000259867 -0.000354132 0 -0.000257696 -0.000249137 0 
-0.00034313 -0.000299896 0 -0.000344514 -0.000199127 0 -0.000434309 -0.000250039 0 
-0.000169832 -0.000505815 0 -0.000435227 -0.000146227 0 0.000280331 -0.000442424 0 
-0.000340889 8.76793e-05 0 -0.000515252 4.06198e-05 0 6.50491e-05 0.000568253 0 
0.00053278 1.74743e-05 0 0.000522071 0.000229831 0 -0.00037162 0.000391659 0 
-0.000255272 -0.000150439 0 -0.000442893 -0.000350705 0 0.000450067 -0.000332559 0 
0.000545175 -0.000276306 0 -0.000527797 -0.000197598 0 0.000105306 -0.000551033 0 
1.45836e-05 -0.000609147 0 0.00017145 0.000214453 0 0.000515525 0.000341711 0 
0.000636086 0.000290368 0 -0.000558657 0.000404468 0 -4.01232e-05 0.000616718 0 
6.60192e-05 0.000696422 0 -0.000101806 0.0002546 0 0.000271142 -3.88908e-05 0 
0.000179455 -0.00018534 0 -8.79553e-05 -0.000254307 0 -0.000749267 -0.000373451 0 
-0.000655941 -0.000323397 0 0.000709746 0.000466718 0 0.000698426 -0.000473086 0 
-5.25801e-05 -0.00084886 0 -4.93005e-05 0.000848038 0 0.000617396 -0.000413362 0 
0.000702056 -0.000369817 0 0.000131459 -0.000679171 0 2.48171e-05 -0.000715924 0 
-0.000664217 -0.00042729 0 -0.000528828 -8.80444e-05 0 -0.000611101 -0.000136672 0 
-0.000426972 -4.45841e-05 0 0.000800669 0.000378216 0 0.000821144 -0.000415062 0 
7.2799e-05 0.00088254 0 6.81831e-05 -0.00087503 0 0.000104963 -0.000788946 0 
-7.40696e-05 -0.000660054 0 0.000126061 0.000809943 0 0.000764361 0.000295682 0 
0.000166862 0.000630623 0 0.000516462 -0.00046707 0 -0.000563585 -0.000389606 0 
-0.000622598 -1.40238e-05 0 0.000629891 0.000171529 0 2.5614e-06 -0.000299794 0 
8.6901e-05 -0.00024329 0 0.000272045 -0.000136982 0 -0.00075148 0.000138321 0 
0.000209366 -0.000599589 0 0.000324913 -0.000630055 0 0.000614044 0.00041245 0 
0.00049651 -0.000573327 0 0.000394822 -0.000507321 0 -0.000173714 -0.000206698 0 
0.000264897 5.63722e-05 0 0.000247997 0.000152811 0 -4.63327e-05 -0.000920208 0 
9.18688e-05 0.000258626 0 -5.54111e-06 0.000290558 0 -0.000184219 0.000201484 0 
-0.000263559 0.000142267 0 -0.000256427 5.13624e-05 0 -0.000336894 -2.06179e-06 0 
-0.000228499 -4.2388e-05 0 -0.00017589 0.000106626 0 -0.000769947 -0.000133367 0 
0.000767591 -0.000500293 0 -5.05874e-05 0.000737978 0 0.000754456 -3.51771e-06 0 
0.00064691 -6.15298e-05 0 0.000630483 -0.00018134 0 0.000749187 -0.000265543 0 
-0.000760805 -0.000462521 0 0.000638155 6.09315e-05 0 -4.46661e-05 0.000922995 0 
-2.37945e-05 0.000207237 0 0.000776979 0.000500181 0 -0.000605691 0.000527596 0 
-0.000377914 -0.000653727 0 -0.000372325 -0.000526022 0 -0.000275829 -0.000589621 0 
-0.000254285 -0.000710579 0 -0.000379307 0.000656222 0 -0.000379818 0.00052718 0 
-0.000266817 0.000721555 0 -0.000150544 0.000668174 0 0.000381963 0.00065079 0 
0.000493113 0.000590432 0 0.000505439 0.000463708 0 -0.000269094 0.000596608 0 
0.000385815 0.000532045 0 0.000283599 0.0005899 0 -0.000176405 -0.000108505 0 
-0.000278769 -0.000475415 0 0.000185395 2.33014e-06 0 0.000186773 0.000517571 0 
0.000540032 -8.68444e-05 0 -0.000600694 -0.000514877 0 -0.00063703 8.98033e-05 0 
-0.000459677 0.000335729 0 -0.000338836 -0.000100751 0 -0.000457327 0.000432721 0 
-8.72007e-06 -0.000210238 0 0.000156073 0.000129496 0 -7.70692e-05 -0.000555049 0 
0.00036091 -0.000389728 0 0.000531628 0.000120564 0 -0.000285451 0.000435562 0 
0.000192719 -0.000494604 0 0.00041642 0.00039368 0 -0.000135943 0.000554637 0 
-0.000170665 -0.000610079 0 -0.000666304 0.000434981 0 -0.000758736 0.000479231 0 
-0.000470189 -0.000458901 0 0.000203433 -8.59809e-05 0 0.000101846 0.000170114 0 
-0.00035513 -0.00040726 0 0.000100184 -0.000165831 0 2.96286e-05 0.00081537 0 
0.000720946 0.000381836 0 -0.000539809 -0.000292001 0 0.00052211 -0.000182426 0 
-6.41339e-05 -0.000753908 0 0.000638039 -0.000299861 0 -0.000605136 -0.000230182 0 
-3.41638e-05 -0.000145561 0 -0.000104037 0.000172396 0 -0.000808575 -0.00042774 0 
-0.000807207 -0.000465052 0 -0.00080817 0.000429771 0 -0.000806589 0.000469738 0 
-9.50634e-05 -0.000178909 0 0.000247777 0.000445058 0 1.48293e-05 -0.000814201 0 
-4.11555e-05 0.000140955 0 0.000276104 -0.000536845 0 0.000765969 -0.000436638 0 
0.000780871 -0.000362769 0 0.000424176 -0.000642018 0 0.00053413 -0.000368009 0 
-0.000416333 4.17911e-05 0 -0.000133891 -6.23822e-05 0 4.2574e-05 0.000206312 0 
[...]
POINT_DATA 626
VECTORS displacement float
-1.74394e-06 3.09552e-05 1.80554e-05
1.73565e-06 3.09742e-05 1.81005e-05
-2.5987e-05 1.69932e-05 1.80874e-05
-2.58416e-05 1.60334e-05 1.8052e-05
-2.77213e-05 1.39732e-05 1.80694e-05
-2.77143e-05 -1.40195e-05 1.80949e-05
-2.58128e-05 -1.60716e-05 1.81062e-05
-2.59832e-05 -1.70113e-05 1.81674e-05
-1.6774e-06 -3.09589e-05 1.80518e-05
1.75545e-06 -3.09604e-05 1.81022e-05
2.59443e-05 -1.69811e-05 1.80438e-05
2.77177e-05 -1.39371e-05 1.80437e-05
2.76731e-05 1.39898e-05 1.8092e-05
2.59156e-05 1.69934e-05 1.80464e-05
0 0 0
-1.74394e-06 3.09552e-05 -1.80554e-05
1.73565e-06 3.09742e-05 -1.81005e-05
-2.5987e-05 1.69932e-05 -1.80874e-05
-2.58416e-05 1.60334e-05 -1.8052e-05
-2.77213e-05 1.39732e-05 -1.80694e-05
-2.77143e-05 -1.40195e-05 -1.80949e-05
-2.58128e-05 -1.60716e-05 -1.81062e-05
-2.59832e-05 -1.70113e-05 -1.81674e-05
-1.6774e-06 -3.09589e-05 -1.80518e-05
1.75545e-06 -3.09604e-05 -1.81022e-05
2.59443e-05 -1.69811e-05 -1.80438e-05
2.77177e-05 -1.39371e-05 -1.80437e-05
2.76731e-05 1.39898e-05 -1.8092e-05
2.59156e-05 1.69934e-05 -1.80464e-05
0 0 0
2.4891e-08 3.01551e-05 1.80345e-05
-2.11412e-05 1.87128e-05 1.75501e-05
-1.72331e-05 1.98344e-05 1.69212e-05
-1.40074e-05 2.10549e-05 1.65554e-05
-1.12072e-05 2.26655e-05 1.65492e-05
-8.52428e-06 2.48336e-05 1.69018e-05
-5.56787e-06 2.76225e-05 1.75378e-05
-2.64505e-05 1.46795e-05 1.80338e-05
-2.67694e-05 -9.01185e-06 1.75778e-05
-2.5807e-05 -5.03568e-06 1.69264e-05
-2.52552e-05 -1.63628e-06 1.65718e-05
-2.52582e-05 1.60792e-06 1.65748e-05
-2.57992e-05 5.02307e-06 1.69246e-05
-2.67556e-05 8.98493e-06 1.75643e-05
-2.64374e-05 -1.47258e-05 1.80626e-05
-5.54113e-06 -2.7637e-05 1.753e-05
-8.4768e-06 -2.48426e-05 1.69011e-05
-1.11704e-05 -2.2685e-05 1.65566e-05
-1.3971e-05 -2.10879e-05 1.656e-05
-1.72155e-05 -1.98697e-05 1.69371e-05
-2.11348e-05 -1.87496e-05 1.75626e-05
8.98355e-08 -3.01398e-05 1.80297e-05
2.11246e-05 -1.86253e-05 1.75118e-05
1.72452e-05 -1.97627e-05 1.68733e-05
1.40343e-05 -2.10118e-05 1.6512e-05
1.12254e-05 -2.25937e-05 1.65466e-05
8.58144e-06 -2.47808e-05 1.68746e-05
5.65475e-06 -2.76272e-05 1.75353e-05
2.61252e-05 -1.50601e-05 1.80287e-05
2.67175e-05 8.93873e-06 1.75019e-05
2.57228e-05 5.0498e-06 1.69088e-05
2.52073e-05 1.62339e-06 1.65236e-05
2.52044e-05 -1.5995e-06 1.65219e-05
2.57514e-05 -4.99759e-06 1.68887e-05
2.66996e-05 -8.91748e-06 1.751e-05
2.61083e-05 1.50612e-05 1.80257e-05
5.6332e-06 2.76186e-05 1.75099e-05
8.50881e-06 2.48075e-05 1.69116e-05
1.12174e-05 2.26417e-05 1.65298e-05
1.40049e-05 2.10228e-05 1.65252e-05
1.72222e-05 1.9794e-05 1.68855e-05
2.11156e-05 1.86349e-05 1.75257e-05
0 0 0
0 0 0
0 0 0
0 0 0
0 0 0
0 0 0
2.4891e-08 3.01551e-05 -1.80345e-05
-2.11412e-05 1.87128e-05 -1.75501e-05
-1.72331e-05 1.98344e-05 -1.69212e-05
-1.40074e-05 2.10549e-05 -1.65554e-05
-1.12072e-05 2.26655e-05 -1.65492e-05
-8.52428e-06 2.48336e-05 -1.69018e-05
-5.56787e-06 2.76225e-05 -1.75378e-05
-2.64505e-05 1.46795e-05 -1.80338e-05
-2.67694e-05 -9.01185e-06 -1.75778e-05
-2.5807e-05 -5.03568e-06 -1.69264e-05
-2.52552e-05 -1.63628e-06 -1.65718e-05
-2.52582e-05 1.60792e-06 -1.65748e-05
-2.57992e-05 5.02307e-06 -1.69246e-05
-2.67556e-05 8.98493e-06 -1.75643e-05
-2.64374e-05 -1.47258e-05 -1.80626e-05
-5.54113e-06 -2.7637e-05 -1.753e-05
-8.4768e-06 -2.48426e-05 -1.69011e-05
-1.11704e-05 -2.2685e-05 -1.65566e-05
-1.3971e-05 -2.10879e-05 -1.656e-05
-1.72155e-05 -1.98697e-05 -1.69371e-05
-2.11348e-05 -1.87496e-05 -1.75626e-05
8.98355e-08 -3.01398e-05 -1.80297e-05
2.11246e-05 -1.86253e-05 -1.75118e-05
1.72452e-05 -1.97627e-05 -1.68733e-05
1.40343e-05 -2.10118e-05 -1.6512e-05
1.12254e-05 -2.25937e-05 -1.65466e-05
8.58144e-06 -2.47808e-05 -1.68746e-05
5.65475e-06 -2.76272e-05 -1.75353e-05
2.61252e-05 -1.50601e-05 -1.80287e-05
2.67175e-05 8.93873e-06 -1.75019e-05
2.57228e-05 5.0498e-06 -1.69088e-05
2.52073e-05 1.62339e-06 -1.65236e-05
2.52044e-05 -1.5995e-06 -1.65219e-05
2.57514e-05 -4.99759e-06 -1.68887e-05
2.66996e-05 -8.91748e-06 -1.751e-05
2.61083e-05 1.50612e-05 -1.80257e-05
5.6332e-06 2.76186e-05 -1.75099e-05
8.50881e-06 2.48075e-05 -1.69116e-05
1.12174e-05 2.26417e-05 -1.65298e-05
1.40049e-05 2.10228e-05 -1.65252e-05
1.72222e-05 1.9794e-05 -1.68855e-05
2.11156e-05 1.86349e-05 -1.75257e-05
0 0 0
0 0 0
0 0 0
0 0 0
0 0 0
0 0 0
1.79372e-06 8.58764e-07 4.55238e-06
1.73786e-06 -8.25132e-07 4.46093e-06
4.31963e-07 1.84966e-06 4.49524e-06
4.36107e-07 -1.78067e-06 4.35621e-06
-1.84753e-06 2.09637e-08 4.42249e-06
-1.12311e-06 -1.3089e-06 4.15112e-06
-1.15923e-06 1.30682e-06 4.1999e-06
-2.25137e-05 -7.2879e-06 1.70003e-05
-2.2197e-05 7.37179e-06 1.6969e-05
-4.86055e-06 2.28991e-05 1.69374e-05
-4.85806e-06 -2.31323e-05 1.69643e-05
1.74217e-05 1.56359e-05 1.69302e-05
1.75693e-05 -1.55369e-05 1.69395e-05
2.10741e-05 3.16398e-06 1.63248e-05
-1.39535e-05 1.71517e-05 1.64788e-05
-1.35916e-05 -1.67417e-05 1.64103e-05
7.76806e-06 1.98201e-05 1.63316e-05
7.68507e-06 -2.03105e-05 1.64029e-05
2.14729e-05 -3.44385e-06 1.64006e-05
-2.11033e-05 6.58811e-09 1.6247e-05
-2.24209e-05 1.1e-05 1.7454e-05
-1.87514e-05 9.25495e-06 1.66274e-05
-1.79833e-05 5.79562e-06 1.60367e-05
-1.49844e-05 7.44854e-06 1.54867e-05
-1.42249e-05 4.30784e-06 1.483e-05
-1.15329e-05 5.74405e-06 1.4095e-05
-1.08583e-05 3.06882e-06 1.33738e-05
-8.40072e-06 4.30499e-06 1.24046e-05
-9.05906e-06 7.0136e-06 1.34566e-05
-6.20427e-06 5.48866e-06 1.16892e-05
-6.82849e-06 8.24967e-06 1.30802e-05
-4.28151e-06 6.67509e-06 1.14507e-05
-4.80014e-06 9.61019e-06 1.30942e-05
-2.40094e-06 7.99356e-06 1.17232e-05
-2.81293e-06 1.11675e-05 1.34752e-05
-4.75424e-07 9.59556e-06 1.25012e-05
-7.38376e-07 1.29973e-05 1.4142e-05
1.73113e-06 1.15181e-05 1.35352e-05
-5.53484e-06 1.27007e-05 1.44372e-05
1.68512e-06 8.2242e-06 1.17478e-05
4.00429e-06 1.01212e-05 1.31512e-05
3.70545e-06 7.09814e-06 1.14785e-05
6.06757e-06 8.96692e-06 1.31136e-05
5.76698e-06 6.10696e-06 1.17358e-05
8.35832e-06 8.02055e-06 1.34923e-05
8.10587e-06 5.19541e-06 1.25006e-05
1.09543e-05 7.09725e-06 1.41472e-05
1.07463e-05 4.32292e-06 1.34993e-05
8.53077e-06 1.10378e-05 1.4461e-05
7.93791e-06 2.64382e-06 1.17276e-05
1.06463e-05 1.73725e-06 1.31043e-05
7.9489e-06 3.5877e-07 1.14558e-05
1.08067e-05 -7.59134e-07 1.31244e-05
8.11187e-06 -1.93786e-06 1.17093e-05
1.10986e-05 -3.31295e-06 1.34842e-05
8.46997e-06 -4.4241e-06 1.24443e-05
1.1504e-05 -6.00305e-06 1.41097e-05
8.95583e-06 -7.13831e-06 1.34283e-05
6.14769e-06 -5.49457e-06 1.16415e-05
6.64469e-06 -8.3011e-06 1.30185e-05
4.10532e-06 -6.58869e-06 1.13112e-05
4.52348e-06 -9.55114e-06 1.29886e-05
2.24236e-06 -7.8585e-06 1.15976e-05
2.4849e-06 -1.10022e-05 1.33512e-05
2.25297e-07 -9.37395e-06 1.23538e-05
3.30022e-07 -1.27702e-05 1.40341e-05
-1.91549e-06 -1.1151e-05 1.33773e-05
-1.84112e-06 -7.92184e-06 1.15824e-05
-4.16802e-06 -9.87513e-06 1.30853e-05
-3.81405e-06 -6.73069e-06 1.13174e-05
-6.3458e-06 -8.66227e-06 1.30996e-05
-5.89146e-06 -5.69817e-06 1.16286e-05
-8.49997e-06 -7.43601e-06 1.338e-05
-8.16778e-06 -4.72819e-06 1.24089e-05
-1.1096e-05 -6.40295e-06 1.40702e-05
-4.37178e-06 -1.31236e-05 1.4434e-05
-1.08092e-05 -3.65079e-06 1.34395e-05
7.22633e-06 -1.13731e-05 1.42733e-05
-7.74192e-06 1.98274e-06 1.14932e-05
-1.32165e-05 1.03509e-06 1.42113e-05
1.72917e-06 1.50833e-05 1.49526e-05
1.37685e-05 4.62252e-07 1.43881e-05
1.38436e-05 6.10029e-06 1.49321e-05
-9.69435e-06 1.01966e-05 1.45329e-05
-5.41616e-06 -3.19774e-06 1.01824e-05
-1.1714e-05 -9.29762e-06 1.48896e-05
1.18827e-05 -8.76048e-06 1.47875e-05
1.47822e-05 -7.47383e-06 1.54037e-05
-1.39602e-05 -5.24405e-06 1.4862e-05
2.79591e-06 -1.45166e-05 1.47966e-05
4.24573e-07 -1.64999e-05 1.53981e-05
3.51853e-06 4.39706e-06 9.58138e-06
1.4011e-05 9.29934e-06 1.5492e-05
1.79313e-05 8.14521e-06 1.6301e-05
-1.56759e-05 1.13957e-05 1.62339e-05
-1.09412e-06 1.67696e-05 1.54957e-05
1.90691e-06 1.96222e-05 1.63114e-05
-2.09193e-06 5.22023e-06 9.59788e-06
5.5541e-06 -7.84626e-07 9.59443e-06
3.58605e-06 -3.68367e-06 9.08225e-06
-1.77969e-06 -5.17872e-06 9.44988e-06
-2.24694e-05 -1.10111e-05 1.74747e-05
-1.87987e-05 -9.2417e-06 1.66515e-05
2.11484e-05 1.41652e-05 1.7506e-05
2.07544e-05 -1.4318e-05 1.74359e-05
-1.76464e-06 -2.54472e-05 1.75113e-05
-1.68217e-06 2.54113e-05 1.7516e-05
1.77135e-05 -1.19072e-05 1.66876e-05
2.06463e-05 -1.07514e-05 1.71164e-05
3.77575e-06 -1.89857e-05 1.61398e-05
7.68549e-07 -2.03464e-05 1.64833e-05
-1.94057e-05 -1.26509e-05 1.71435e-05
-1.37315e-05 -2.307e-06 1.44723e-05
-1.65932e-05 -3.70155e-06 1.5478e-05
-1.03761e-05 -1.09642e-06 1.29524e-05
2.44527e-05 1.10731e-05 1.7652e-05
2.54982e-05 -1.24036e-05 1.78485e-05
2.64929e-06 2.67267e-05 1.76609e-05
2.52104e-06 -2.64143e-05 1.76297e-05
3.33954e-06 -2.30326e-05 1.70295e-05
-2.05395e-06 -1.83204e-05 1.59513e-05
4.05915e-06 2.3792e-05 1.71308e-05
2.26148e-05 8.37952e-06 1.71197e-05
4.61374e-06 1.73139e-05 1.57277e-05
1.44274e-05 -1.31198e-05 1.61378e-05
-1.57881e-05 -1.0985e-05 1.62149e-05
-1.68003e-05 -3.8144e-07 1.53777e-05
1.73064e-05 4.68762e-06 1.57261e-05
6.55233e-08 -6.38748e-06 1.02677e-05
1.74176e-06 -4.84859e-06 9.09275e-06
5.85062e-06 -2.93559e-06 1.03785e-05
-2.14448e-05 3.75063e-06 1.64592e-05
5.72952e-06 -1.6275e-05 1.55081e-05
9.08372e-06 -1.74995e-05 1.59979e-05
1.75727e-05 1.1882e-05 1.66727e-05
1.39946e-05 -1.63827e-05 1.64016e-05
1.07403e-05 -1.37894e-05 1.55505e-05
-3.54806e-06 -4.2203e-06 9.50103e-06
5.39926e-06 1.13853e-06 9.49932e-06
5.21819e-06 3.22296e-06 1.00475e-05
-1.7498e-06 -2.83552e-05 1.78772e-05
1.89211e-06 5.29903e-06 9.58472e-06
-1.13827e-07 6.10516e-06 1.0039e-05
-3.78502e-06 4.12785e-06 9.57867e-06
-5.62282e-06 3.03426e-06 1.02855e-05
-5.1656e-06 1.0407e-06 9.21387e-06
-7.52744e-06 -6.17409e-08 1.11727e-05
-4.33448e-06 -8.10297e-07 8.38209e-06
-3.10866e-06 1.87238e-06 7.37427e-06
-2.20818e-05 -3.60787e-06 1.65162e-05
2.34068e-05 -1.56883e-05 1.78365e-05
-1.50723e-06 2.11685e-05 1.66824e-05
2.12622e-05 -8.45223e-08 1.62261e-05
1.76226e-05 -1.64685e-06 1.55818e-05
1.73482e-05 -4.94181e-06 1.57711e-05
2.18921e-05 -7.45133e-06 1.6914e-05
-2.31828e-05 -1.42549e-05 1.7833e-05
1.73251e-05 1.64892e-06 1.55089e-05
-1.73402e-06 2.84737e-05 1.78944e-05
-4.22082e-07 3.6835e-06 7.49551e-06
2.37725e-05 1.57427e-05 1.78849e-05
-1.74978e-05 1.56426e-05 1.69753e-05
-1.06265e-05 -1.84666e-05 1.62555e-05
-1.00998e-05 -1.43427e-05 1.55721e-05
-7.50798e-06 -1.60953e-05 1.56224e-05
-7.32232e-06 -2.01211e-05 1.63957e-05
-1.07048e-05 1.85357e-05 1.62672e-05
-1.03476e-05 1.43845e-05 1.56197e-05
-7.77284e-06 2.0493e-05 1.64446e-05
-4.2531e-06 1.86102e-05 1.60534e-05
1.076e-05 1.8346e-05 1.62266e-05
1.38921e-05 1.69354e-05 1.64314e-05
1.40423e-05 1.29732e-05 1.60517e-05
-7.36178e-06 1.62888e-05 1.56389e-05
1.05254e-05 1.45474e-05 1.56456e-05
7.74897e-06 1.60928e-05 1.56143e-05
-3.11654e-06 -1.89881e-06 7.3934e-06
-7.25785e-06 -1.24223e-05 1.46255e-05
3.00873e-06 4.03611e-08 6.60117e-06
4.87271e-06 1.35231e-05 1.46185e-05
1.40764e-05 -2.26045e-06 1.45708e-05
-1.72902e-05 -1.52171e-05 1.69459e-05
-1.7367e-05 2.42038e-06 1.55982e-05
-1.2205e-05 8.91219e-06 1.49439e-05
-7.70584e-06 -2.29258e-06 1.1555e-05
-1.24501e-05 1.1813e-05 1.55404e-05
-1.42739e-07 -3.75432e-06 7.5544e-06
2.7303e-06 2.27213e-06 7.25214e-06
-2.00392e-06 -1.46509e-05 1.48085e-05
9.36536e-06 -1.00685e-05 1.43898e-05
1.38611e-05 3.15791e-06 1.45665e-05
-7.34026e-06 1.11997e-05 1.42607e-05
4.99737e-06 -1.27752e-05 1.43697e-05
1.10322e-05 1.04308e-05 1.49201e-05
-3.59655e-06 1.46857e-05 1.49084e-05
-4.6356e-06 -1.66174e-05 1.55492e-05
-1.95076e-05 1.28928e-05 1.71617e-05
-2.31275e-05 1.48585e-05 1.78438e-05
-1.29053e-05 -1.26865e-05 1.5813e-05
3.7609e-06 -1.58616e-06 7.90719e-06
1.76444e-06 2.92236e-06 7.08465e-06
-9.23076e-06 -1.06098e-05 1.45322e-05
1.72778e-06 -2.82323e-06 6.93128e-06
9.94749e-07 2.41176e-05 1.73089e-05
2.13686e-05 1.11942e-05 1.72991e-05
-1.46651e-05 -7.95363e-06 1.54858e-05
1.37085e-05 -4.78647e-06 1.46911e-05
-1.90993e-06 -2.17636e-05 1.68032e-05
1.80609e-05 -8.41932e-06 1.63411e-05
-1.66794e-05 -6.32876e-06 1.57829e-05
-4.32911e-07 -1.92237e-06 4.79862e-06
-1.80542e-06 2.99552e-06 7.1774e-06
-2.50527e-05 -1.29822e-05 1.79227e-05
-2.51279e-05 -1.45077e-05 1.80025e-05
-2.50458e-05 1.30341e-05 1.79064e-05
-2.51187e-05 1.46504e-05 1.79825e-05
-1.6485e-06 -3.12493e-06 7.21014e-06
6.32814e-06 1.13687e-05 1.4077e-05
5.33719e-07 -2.40868e-05 1.73026e-05
-5.22791e-07 1.80959e-06 4.64515e-06
7.40769e-06 -1.43441e-05 1.51528e-05
2.33035e-05 -1.32097e-05 1.77292e-05
2.36334e-05 -1.05379e-05 1.74912e-05
1.19888e-05 -1.82115e-05 1.62937e-05
1.47306e-05 -1.0147e-05 1.5796e-05
-1.00274e-05 1.00128e-06 1.2755e-05
-1.74006e-06 -8.15922e-07 4.7236e-06
7.69085e-07 3.70845e-06 7.57339e-06
2.34313e-06 -1.99721e-06 6.5555e-06
2.01572e-05 5.89802e-06 1.64541e-05
5.07023e-06 2.05966e-05 1.64965e-05
3.42119e-07 -2.76808e-05 1.78544e-05
-1.73127e-06 7.09129e-07 4.60647e-06
-3.21159e-06 6.23064e-07 6.82436e-06
3.57731e-06 1.47545e-06 7.63687e-06
4.99228e-07 2.83246e-05 1.79277e-05
2.4761e-05 1.37345e-05 1.79188e-05
-2.0329e-05 1.55363e-05 1.74295e-05
1.17874e-06 1.36451e-06 4.45999e-06
-2.06402e-05 -1.57288e-05 1.7528e-05
-1.89995e-05 -2.32226e-06 1.59466e-05
-1.95598e-05 -5.58518e-06 1.63327e-05
9.05707e-07 -3.24784e-06 7.00633e-06
-4.36615e-06 -1.97899e-05 1.63223e-05
-7.93754e-06 1.38349e-05 1.51016e-05
1.16578e-06 -1.30422e-06 4.33943e-06
1.19348e-05 -1.12287e-05 1.52926e-05
6.13323e-06 -2.26968e-05 1.68209e-05
-1.45226e-05 1.43558e-05 1.63241e-05
7.92933e-06 1.33217e-05 1.49485e-05
1.79372e-06 8.58764e-07 -4.55238e-06
1.73786e-06 -8.25132e-07 -4.46093e-06
4.31963e-07 1.84966e-06 -4.49524e-06
4.36107e-07 -1.78067e-06 -4.35621e-06
-1.84753e-06 2.09637e-08 -4.42249e-06
-1.12311e-06 -1.3089e-06 -4.15112e-06
-1.15923e-06 1.30682e-06 -4.1999e-06
-2.25137e-05 -7.2879e-06 -1.70003e-05
-2.2197e-05 7.37179e-06 -1.6969e-05
-4.86055e-06 2.28991e-05 -1.69374e-05
-4.85806e-06 -2.31323e-05 -1.69643e-05
1.74217e-05 1.56359e-05 -1.69302e-05
1.75693e-05 -1.55369e-05 -1.69395e-05
2.10741e-05 3.16398e-06 -1.63248e-05
-1.39535e-05 1.71517e-05 -1.64788e-05
-1.35916e-05 -1.67417e-05 -1.64103e-05
7.76806e-06 1.98201e-05 -1.63316e-05
7.68507e-06 -2.03105e-05 -1.64029e-05
2.14729e-05 -3.44385e-06 -1.64006e-05
-2.11033e-05 6.58811e-09 -1.6247e-05
-2.24209e-05 1.1e-05 -1.7454e-05
-1.87514e-05 9.25495e-06 -1.66274e-05
-1.79833e-05 5.79562e-06 -1.60367e-05
-1.49844e-05 7.44854e-06 -1.54867e-05
-1.42249e-05 4.30784e-06 -1.483e-05
-1.15329e-05 5.74405e-06 -1.4095e-05
-1.08583e-05 3.06882e-06 -1.33738e-05
-8.40072e-06 4.30499e-06 -1.24046e-05
-9.05906e-06 7.0136e-06 -1.34566e-05
-6.20427e-06 5.48866e-06 -1.16892e-05
-6.82849e-06 8.24967e-06 -1.30802e-05
-4.28151e-06 6.67509e-06 -1.14507e-05
-4.80014e-06 9.61019e-06 -1.30942e-05
-2.40094e-06 7.99356e-06 -1.17232e-05
-2.81293e-06 1.11675e-05 -1.34752e-05
-4.75424e-07 9.59556e-06 -1.25012e-05
-7.38376e-07 1.29973e-05 -1.4142e-05
1.73113e-06 1.15181e-05 -1.35352e-05
-5.53484e-06 1.27007e-05 -1.44372e-05
1.68512e-06 8.2242e-06 -1.17478e-05
4.00429e-06 1.01212e-05 -1.31512e-05
3.70545e-06 7.09814e-06 -1.14785e-05
6.06757e-06 8.96692e-06 -1.31136e-05
5.76698e-06 6.10696e-06 -1.17358e-05
8.35832e-06 8.02055e-06 -1.34923e-05
8.10587e-06 5.19541e-06 -1.25006e-05
1.09543e-05 7.09725e-06 -1.41472e-05
1.07463e-05 4.32292e-06 -1.34993e-05
8.53077e-06 1.10378e-05 -1.4461e-05
7.93791e-06 2.64382e-06 -1.17276e-05
1.06463e-05 1.73725e-06 -1.31043e-05
7.9489e-06 3.5877e-07 -1.14558e-05
1.08067e-05 -7.59134e-07 -1.31244e-05
8.11187e-06 -1.93786e-06 -1.17093e-05
1.10986e-05 -3.31295e-06 -1.34842e-05
8.46997e-06 -4.4241e-06 -1.24443e-05
1.1504e-05 -6.00305e-06 -1.41097e-05
8.95583e-06 -7.13831e-06 -1.34283e-05
6.14769e-06 -5.49457e-06 -1.16415e-05
6.64469e-06 -8.3011e-06 -1.30185e-05
4.10532e-06 -6.58869e-06 -1.13112e-05
4.52348e-06 -9.55114e-06 -1.29886e-05
2.24236e-06 -7.8585e-06 -1.15976e-05
2.4849e-06 -1.10022e-05 -1.33512e-05
2.25297e-07 -9.37395e-06 -1.23538e-05
3.30022e-07 -1.27702e-05 -1.40341e-05
-1.91549e-06 -1.1151e-05 -1.33773e-05
-1.84112e-06 -7.92184e-06 -1.15824e-05
-4.16802e-06 -9.87513e-06 -1.30853e-05
-3.81405e-06 -6.73069e-06 -1.13174e-05
-6.3458e-06 -8.66227e-06 -1.30996e-05
-5.89146e-06 -5.69817e-06 -1.16286e-05
-8.49997e-06 -7.43601e-06 -1.338e-05
-8.16778e-06 -4.72819e-06 -1.24089e-05
-1.1096e-05 -6.40295e-06 -1.40702e-05
-4.37178e-06 -1.31236e-05 -1.4434e-05
-1.08092e-05 -3.65079e-06 -1.34395e-05
7.22633e-06 -1.13731e-05 -1.42733e-05
-7.74192e-06 1.98274e-06 -1.14932e-05
-1.32165e-05 1.03509e-06 -1.42113e-05
1.72917e-06 1.50833e-05 -1.49526e-05
1.37685e-05 4.62252e-07 -1.43881e-05
1.38436e-05 6.10029e-06 -1.49321e-05
-9.69435e-06 1.01966e-05 -1.45329e-05
-5.41616e-06 -3.19774e-06 -1.01824e-05
-1.1714e-05 -9.29762e-06 -1.48896e-05
1.18827e-05 -8.76048e-06 -1.47875e-05
1.47822e-05 -7.47383e-06 -1.54037e-05
-1.39602e-05 -5.24405e-06 -1.4862e-05
2.79591e-06 -1.45166e-05 -1.47966e-05
4.24573e-07 -1.64999e-05 -1.53981e-05
3.51853e-06 4.39706e-06 -9.58138e-06
1.4011e-05 9.29934e-06 -1.5492e-05
1.79313e-05 8.14521e-06 -1.6301e-05
-1.56759e-05 1.13957e-05 -1.62339e-05
-1.09412e-06 1.67696e-05 -1.54957e-05
1.90691e-06 1.96222e-05 -1.63114e-05
-2.09193e-06 5.22023e-06 -9.59788e-06
5.5541e-06 -7.84626e-07 -9.59443e-06
3.58605e-06 -3.68367e-06 -9.08225e-06
-1.77969e-06 -5.17872e-06 -9.44988e-06
-2.24694e-05 -1.10111e-05 -1.74747e-05
-1.87987e-05 -9.2417e-06 -1.66515e-05
2.11484e-05 1.41652e-05 -1.7506e-05
2.07544e-05 -1.4318e-05 -1.74359e-05
-1.76464e-06 -2.54472e-05 -1.75113e-05
-1.68217e-06 2.54113e-05 -1.7516e-05
1.77135e-05 -1.19072e-05 -1.66876e-05
2.06463e-05 -1.07514e-05 -1.71164e-05
3.77575e-06 -1.89857e-05 -1.61398e-05
7.68549e-07 -2.03464e-05 -1.64833e-05
-1.94057e-05 -1.26509e-05 -1.71435e-05
-1.37315e-05 -2.307e-06 -1.44723e-05
-1.65932e-05 -3.70155e-06 -1.5478e-05
-1.03761e-05 -1.09642e-06 -1.29524e-05
2.44527e-05 1.10731e-05 -1.7652e-05
2.54982e-05 -1.24036e-05 -1.78485e-05
2.64929e-06 2.67267e-05 -1.76609e-05
2.52104e-06 -2.64143e-05 -1.76297e-05
3.33954e-06 -2.30326e-05 -1.70295e-05
-2.05395e-06 -1.83204e-05 -1.59513e-05
4.05915e-06 2.3792e-05 -1.71308e-05
2.26148e-05 8.37952e-06 -1.71197e-05
4.61374e-06 1.73139e-05 -1.57277e-05
1.44274e-05 -1.31198e-05 -1.61378e-05
-1.57881e-05 -1.0985e-05 -1.62149e-05
-1.68003e-05 -3.8144e-07 -1.53777e-05
1.73064e-05 4.68762e-06 -1.57261e-05
6.55233e-08 -6.38748e-06 -1.02677e-05
1.74176e-06 -4.84859e-06 -9.09275e-06
5.85062e-06 -2.93559e-06 -1.03785e-05
-2.14448e-05 3.75063e-06 -1.64592e-05
5.72952e-06 -1.6275e-05 -1.55081e-05
9.08372e-06 -1.74995e-05 -1.59979e-05
1.75727e-05 1.1882e-05 -1.66727e-05
1.39946e-05 -1.63827e-05 -1.64016e-05
1.07403e-05 -1.37894e-05 -1.55505e-05
-3.54806e-06 -4.2203e-06 -9.50103e-06
5.39926e-06 1.13853e-06 -9.49932e-06
5.21819e-06 3.22296e-06 -1.00475e-05
-1.7498e-06 -2.83552e-05 -1.78772e-05
1.89211e-06 5.29903e-06 -9.58472e-06
-1.13827e-07 6.10516e-06 -1.0039e-05
-3.78502e-06 4.12785e-06 -9.57867e-06
-5.62282e-06 3.03426e-06 -1.02855e-05
-5.1656e-06 1.0407e-06 -9.21387e-06
-7.52744e-06 -6.17409e-08 -1.11727e-05
-4.33448e-06 -8.10297e-07 -8.38209e-06
-3.10866e-06 1.87238e-06 -7.37427e-06
-2.20818e-05 -3.60787e-06 -1.65162e-05
2.34068e-05 -1.56883e-05 -1.78365e-05
-1.50723e-06 2.11685e-05 -1.66824e-05
2.12622e-05 -8.45223e-08 -1.62261e-05
1.76226e-05 -1.64685e-06 -1.55818e-05
1.73482e-05 -4.94181e-06 -1.57711e-05
2.18921e-05 -7.45133e-06 -1.6914e-05
-2.31828e-05 -1.42549e-05 -1.7833e-05
1.73251e-05 1.64892e-06 -1.55089e-05
-1.73402e-06 2.84737e-05 -1.78944e-05