# vtk DataFile Version 3.0
vtk output at time 260
ASCII
DATASET UNSTRUCTURED_GRID
POINTS 626 float
-3.68058e-05 0.000978749 0 3.68058e-05 0.000978749 0 -0.000829194 0.00052125 0 
-0.0008235 0.0005 0 -0.000866 0.0004575 0 -0.000866 -0.0004575 0 
-0.0008235 -0.0005 0 -0.000829194 -0.00052125 0 -3.68058e-05 -0.000978749 0 
3.68058e-05 -0.000978749 0 0.000829194 -0.00052125 0 0.000866 -0.0004575 0 
0.000866 0.0004575 0 0.000829194 0.00052125 0 8.5e-05 0 0 
-3.68058e-05 0.000978749 -0.001 3.68058e-05 0.000978749 -0.001 -0.000829194 0.00052125 -0.001 
-0.0008235 0.0005 -0.001 -0.000866 0.0004575 -0.001 -0.000866 -0.0004575 -0.001 
-0.0008235 -0.0005 -0.001 -0.000829194 -0.00052125 -0.001 -3.68058e-05 -0.000978749 -0.001 
3.68058e-05 -0.000978749 -0.001 0.000829194 -0.00052125 -0.001 0.000866 -0.0004575 -0.001 
0.000866 0.0004575 -0.001 0.000829194 0.00052125 -0.001 8.5e-05 0 -0.001 
8.46223e-17 0.0009575 0 -0.000715996 0.000586607 0 -0.000602797 0.000651965 0 
-0.000489599 0.000717321 0 -0.000376401 0.000782678 0 -0.000263202 0.000848036 0 
-0.000150004 0.000913393 0 -0.000835948 0.000469948 0 -0.000866 -0.000326786 0 
-0.000866 -0.000196071 0 -0.000866 -6.53571e-05 0 -0.000866 6.53571e-05 0 
-0.000866 0.000196071 0 -0.000866 0.000326786 0 -0.000835948 -0.000469948 0 
-0.000150004 -0.000913393 0 -0.000263202 -0.000848036 0 -0.000376401 -0.000782678 0 
-0.000489599 -0.000717321 0 -0.000602797 -0.000651965 0 -0.000715996 -0.000586607 0 
8.47648e-17 -0.0009575 0 0.000715996 -0.000586607 0 0.000602797 -0.000651965 0 
0.000489599 -0.000717321 0 0.000376401 -0.000782678 0 0.000263202 -0.000848036 0 
0.000150004 -0.000913393 0 0.000829194 -0.00047875 0 0.000866 0.000326786 0 
0.000866 0.000196071 0 0.000866 6.53571e-05 0 0.000866 -6.53571e-05 0 
0.000866 -0.000196071 0 0.000866 -0.000326786 0 0.000829194 0.00047875 0 
0.000150004 0.000913393 0 0.000263202 0.000848036 0 0.000376401 0.000782678 0 
0.000489599 0.000717321 0 0.000602797 0.000651965 0 0.000715996 0.000586607 0 
5.29966e-05 6.64557e-05 0 -1.89143e-05 8.28689e-05 0 -7.65824e-05 3.68801e-05 0 
-7.65824e-05 -3.68801e-05 0 -1.89143e-05 -8.28689e-05 0 5.29966e-05 -6.64557e-05 0 
8.46223e-17 0.0009575 -0.001 -0.000715996 0.000586607 -0.001 -0.000602797 0.000651965 -0.001 
-0.000489599 0.000717321 -0.001 -0.000376401 0.000782678 -0.001 -0.000263202 0.000848036 -0.001 
-0.000150004 0.000913393 -0.001 -0.000835948 0.000469948 -0.001 -0.000866 -0.000326786 -0.001 
-0.000866 -0.000196071 -0.001 -0.000866 -6.53571e-05 -0.001 -0.000866 6.53571e-05 -0.001 
-0.000866 0.000196071 -0.001 -0.000866 0.000326786 -0.001 -0.000835948 -0.000469948 -0.001 
-0.000150004 -0.000913393 -0.001 -0.000263202 -0.000848036 -0.001 -0.000376401 -0.000782678 -0.001 
-0.000489599 -0.000717321 -0.001 -0.000602797 -0.000651965 -0.001 -0.000715996 -0.000586607 -0.001 
8.47648e-17 -0.0009575 -0.001 0.000715996 -0.000586607 -0.001 0.000602797 -0.000651965 -0.001 
0.000489599 -0.000717321 -0.001 0.000376401 -0.000782678 -0.001 0.000263202 -0.000848036 -0.001 
0.000150004 -0.000913393 -0.001 0.000829194 -0.00047875 -0.001 0.000866 0.000326786 -0.001 
0.000866 0.000196071 -0.001 0.000866 6.53571e-05 -0.001 0.000866 -6.53571e-05 -0.001 
0.000866 -0.000196071 -0.001 0.000866 -0.000326786 -0.001 0.000829194 0.00047875 -0.001 
0.000150004 0.000913393 -0.001 0.000263202 0.000848036 -0.001 0.000376401 0.000782678 -0.001 
0.000489599 0.000717321 -0.001 0.000602797 0.000651965 -0.001 0.000715996 0.000586607 -0.001 
5.29966e-05 6.64557e-05 -0.001 -1.89143e-05 8.28689e-05 -0.001 -7.65824e-05 3.68801e-05 -0.001 
-7.65824e-05 -3.68801e-05 -0.001 -1.89143e-05 -8.28689e-05 -0.001 5.29966e-05 -6.64557e-05 -0.001 
0.000131234 6.38474e-05 0 0.00012964 -6.2443e-05 0 3.13827e-05 0.0001394 0 
3.12554e-05 -0.000136939 0 -0.000140461 8.25467e-19 0 -8.90565e-05 -0.000102707 0 
-9.04142e-05 0.000102872 0 -0.000765769 -0.00025965 0 -0.000756873 0.000262774 0 
-0.00015609 0.000787505 0 -0.000155807 -0.00079355 0 0.000605069 0.000528035 0 
0.000608694 -0.00052497 0 0.000744069 0.000116929 0 -0.000494418 0.000596218 0 
-0.000483866 -0.000584648 0 0.000269496 0.000702219 0 0.000263201 -0.000717324 0 
0.000754429 -0.000127825 0 -0.000748858 5.84659e-07 0 -0.000747838 0.000373886 0 
-0.0006542 0.000324842 0 -0.000645137 0.000210123 0 -0.000550884 0.000274171 0 
-0.000538857 0.000163195 0 -0.00045062 0.000224461 0 -0.000438393 0.000123907 0 
-0.000354088 0.000181668 0 -0.000363908 0.000282171 0 -0.000270361 0.000239477 0 
-0.000279138 0.000337653 0 -0.000188888 0.000294791 0 -0.000196448 0.000393271 0 
-0.000104767 0.000348259 0 -0.000113332 0.000449012 0 -2.01066e-05 0.000403223 0 
-2.89189e-05 0.000507105 0 6.9524e-05 0.000461596 0 -0.000213644 0.000490203 0 
7.33757e-05 0.000357726 0 0.000163331 0.00041299 0 0.000163359 0.000313022 0 
0.000248077 0.000366368 0 0.000250914 0.000265758 0 0.000335709 0.000322266 0 
0.000340555 0.000218148 0 0.000427299 0.000276717 0 0.000431508 0.000173093 0 
0.000328731 0.000425633 0 0.00034586 0.000114823 0 0.000435362 7.05241e-05 0 
0.000350892 1.5455e-05 0 0.000441547 -3.11896e-05 0 0.000353547 -8.47783e-05 0 
0.000445767 -0.000132964 0 0.000356135 -0.000186358 0 0.000449094 -0.000234674 0 
0.000359978 -0.000287876 0 0.00026856 -0.000240545 0 0.000271895 -0.000341045 0 
0.000181792 -0.00029305 0 0.00018533 -0.000392851 0 9.75701e-05 -0.00034483 0 
9.98764e-05 -0.000444884 0 8.75116e-06 -0.000396343 0 1.20916e-05 -0.000500496 0 
-7.83929e-05 -0.000449843 0 -8.1471e-05 -0.000347249 0 -0.000171566 -0.000403733 0 
-0.000169889 -0.000298891 0 -0.000259867 -0.000354132 0 -0.000257696 -0.000249137 0 
-0.00034313 -0.000299896 0 -0.000344514 -0.000199127 0 -0.000434309 -0.000250039 0 
-0.000169832 -0.000505815 0 -0.000435227 -0.000146227 0 0.000280331 -0.000442424 0 
-0.000340889 8.76793e-05 0 -0.000515252 4.06198e-05 0 6.50491e-05 0.000568253 0 
0.00053278 1.74743e-05 0 0.000522071 0.000229831 0 -0.00037162 0.000391659 0 
-0.000255272 -0.000150439 0 -0.000442893 -0.000350705 0 0.000450067 -0.000332559 0 
0.000545175 -0.000276306 0 -0.000527797 -0.000197598 0 0.000105306 -0.000551033 0 
1.45836e-05 -0.000609147 0 0.00017145 0.000214453 0 0.000515525 0.000341711 0 
0.000636086 0.000290368 0 -0.000558657 0.000404468 0 -4.01232e-05 0.000616718 0 
6.60192e-05 0.000696422 0 -0.000101806 0.0002546 0 0.000271142 -3.88908e-05 0 
0.000179455 -0.00018534 0 -8.79553e-05 -0.000254307 0 -0.000749267 -0.000373451 0 
-0.000655941 -0.000323397 0 0.000709746 0.000466718 0 0.000698426 -0.000473086 0 
-5.25801e-05 -0.00084886 0 -4.93005e-05 0.000848038 0 0.000617396 -0.000413362 0 
0.000702056 -0.000369817 0 0.000131459 -0.000679171 0 2.48171e-05 -0.000715924 0 
-0.000664217 -0.00042729 0 -0.000528828 -8.80444e-05 0 -0.000611101 -0.000136672 0 
-0.000426972 -4.45841e-05 0 0.000800669 0.000378216 0 0.000821144 -0.000415062 0 
7.2799e-05 0.00088254 0 6.81831e-05 -0.00087503 0 0.000104963 -0.000788946 0 
-7.40696e-05 -0.000660054 0 0.000126061 0.000809943 0 0.000764361 0.000295682 0 
0.000166862 0.000630623 0 0.000516462 -0.00046707 0 -0.000563585 -0.000389606 0 
-0.000622598 -1.40238e-05 0 0.000629891 0.000171529 0 2.5614e-06 -0.000299794 0 
8.6901e-05 -0.00024329 0 0.000272045 -0.000136982 0 -0.00075148 0.000138321 0 
0.000209366 -0.000599589 0 0.000324913 -0.000630055 0 0.000614044 0.00041245 0 
0.00049651 -0.000573327 0 0.000394822 -0.000507321 0 -0.000173714 -0.000206698 0 
0.000264897 5.63722e-05 0 0.000247997 0.000152811 0 -4.63327e-05 -0.000920208 0 
9.18688e-05 0.000258626 0 -5.54111e-06 0.000290558 0 -0.000184219 0.000201484 0 
-0.000263559 0.000142267 0 -0.000256427 5.13624e-05 0 -0.000336894 -2.06179e-06 0 
-0.000228499 -4.2388e-05 0 -0.00017589 0.000106626 0 -0.000769947 -0.000133367 0 
0.000767591 -0.000500293 0 -5.05874e-05 0.000737978 0 0.000754456 -3.51771e-06 0 
0.00064691 -6.15298e-05 0 0.000630483 -0.00018134 0 0.000749187 -0.000265543 0 
-0.000760805 -0.000462521 0 0.000638155 6.09315e-05 0 -4.46661e-05 0.000922995 0 
-2.37945e-05 0.000207237 0 0.000776979 0.000500181 0 -0.000605691 0.000527596 0 
-0.000377914 -0.000653727 0 -0.000372325 -0.000526022 0 -0.000275829 -0.000589621 0 
-0.000254285 -0.000710579 0 -0.000379307 0.000656222 0 -0.000379818 0.00052718 0 
-0.000266817 0.000721555 0 -0.000150544 0.000668174 0 0.000381963 0.00065079 0 
0.000493113 0.000590432 0 0.000505439 0.000463708 0 -0.000269094 0.000596608 0 
0.000385815 0.000532045 0 0.000283599 0.0005899 0 -0.000176405 -0.000108505 0 
-0.000278769 -0.000475415 0 0.000185395 2.33014e-06 0 0.000186773 0.000517571 0 
0.000540032 -8.68444e-05 0 -0.000600694 -0.000514877 0 -0.00063703 8.98033e-05 0 
-0.000459677 0.000335729 0 -0.000338836 -0.000100751 0 -0.000457327 0.000432721 0 
-8.72007e-06 -0.000210238 0 0.000156073 0.000129496 0 -7.70692e-05 -0.000555049 0 
0.00036091 -0.000389728 0 0.000531628 0.000120564 0 -0.000285451 0.000435562 0 
0.000192719 -0.000494604 0 0.00041642 0.00039368 0 -0.000135943 0.000554637 0 
-0.000170665 -0.000610079 0 -0.000666304 0.000434981 0 -0.000758736 0.000479231 0 
-0.000470189 -0.000458901 0 0.000203433 -8.59809e-05 0 0.000101846 0.000170114 0 
-0.00035513 -0.00040726 0 0.000100184 -0.000165831 0 2.96286e-05 0.00081537 0 
0.000720946 0.000381836 0 -0.000539809 -0.000292001 0 0.00052211 -0.000182426 0 
-6.41339e-05 -0.000753908 0 0.000638039 -0.000299861 0 -0.000605136 -0.000230182 0 
-3.41638e-05 -0.000145561 0 -0.000104037 0.000172396 0 -0.000808575 -0.00042774 0 
-0.000807207 -0.000465052 0 -0.00080817 0.000429771 0 -0.000806589 0.000469738 0 
-9.50634e-05 -0.000178909 0 0.000247777 0.000445058 0 1.48293e-05 -0.000814201 0 
-4.11555e-05 0.000140955 0 0.000276104 -0.000536845 0 0.000765969 -0.000436638 0 
0.000780871 -0.000362769 0 0.000424176 -0.000642018 0 0.00053413 -0.000368009 0 
-0.000416333 4.17911e-05 0 -0.000133891 -6.23822e-05 0 4.2574e-05 0.000206312 0 
[...]
POINT_DATA 626
VECTORS displacement float
-1.74395e-06 3.09544e-05 1.8055e-05
1.73566e-06 3.09734e-05 1.81001e-05
-2.59862e-05 1.69928e-05 1.8087e-05
-2.58409e-05 1.6033e-05 1.80516e-05
-2.77206e-05 1.39728e-05 1.8069e-05
-2.77136e-05 -1.40191e-05 1.80945e-05
-2.58121e-05 -1.60712e-05 1.81058e-05
-2.59825e-05 -1.70109e-05 1.8167e-05
-1.6774e-06 -3.09581e-05 1.80514e-05
1.75545e-06 -3.09596e-05 1.81019e-05
2.59436e-05 -1.69807e-05 1.80435e-05
2.7717e-05 -1.39367e-05 1.80433e-05
2.76724e-05 1.39894e-05 1.80916e-05
2.59149e-05 1.6993e-05 1.8046e-05
0 0 0
-1.74395e-06 3.09544e-05 -1.8055e-05
1.73566e-06 3.09734e-05 -1.81001e-05
-2.59862e-05 1.69928e-05 -1.8087e-05
-2.58409e-05 1.6033e-05 -1.80516e-05
-2.77206e-05 1.39728e-05 -1.8069e-05
-2.77136e-05 -1.40191e-05 -1.80945e-05
-2.58121e-05 -1.60712e-05 -1.81058e-05
-2.59825e-05 -1.70109e-05 -1.8167e-05
-1.6774e-06 -3.09581e-05 -1.80514e-05
1.75545e-06 -3.09596e-05 -1.81019e-05
2.59436e-05 -1.69807e-05 -1.80435e-05
2.7717e-05 -1.39367e-05 -1.80433e-05
2.76724e-05 1.39894e-05 -1.80916e-05
2.59149e-05 1.6993e-05 -1.8046e-05
0 0 0
2.48945e-08 3.01543e-05 1.80342e-05
-2.11405e-05 1.87124e-05 1.75497e-05
-1.72325e-05 1.98338e-05 1.69208e-05
-1.40069e-05 2.10542e-05 1.65549e-05
-1.12068e-05 2.26648e-05 1.65487e-05
-8.52407e-06 2.48328e-05 1.69013e-05
-5.56779e-06 2.76217e-05 1.75374e-05
-2.64498e-05 1.46791e-05 1.80334e-05
-2.67687e-05 -9.0115e-06 1.75774e-05
-2.58062e-05 -5.03545e-06 1.69259e-05
-2.52544e-05 -1.6362e-06 1.65713e-05
-2.52574e-05 1.60784e-06 1.65743e-05
-2.57984e-05 5.02285e-06 1.69241e-05
-2.67549e-05 8.98459e-06 1.75639e-05
-2.64367e-05 -1.47254e-05 1.80622e-05
-5.54105e-06 -2.76361e-05 1.75296e-05
-8.47658e-06 -2.48418e-05 1.69006e-05
-1.117e-05 -2.26842e-05 1.65561e-05
-1.39705e-05 -2.10872e-05 1.65595e-05
-1.72149e-05 -1.98691e-05 1.69366e-05
-2.11341e-05 -1.87491e-05 1.75622e-05
8.98401e-08 -3.0139e-05 1.80293e-05
2.11239e-05 -1.86248e-05 1.75114e-05
1.72446e-05 -1.97621e-05 1.68728e-05
1.40338e-05 -2.10111e-05 1.65115e-05
1.1225e-05 -2.25929e-05 1.65461e-05
8.58123e-06 -2.478e-05 1.68741e-05
5.65467e-06 -2.76264e-05 1.75349e-05
2.61245e-05 -1.50597e-05 1.80283e-05
2.67168e-05 8.93837e-06 1.75015e-05
2.5722e-05 5.04957e-06 1.69083e-05
2.52065e-05 1.62331e-06 1.65231e-05
2.52036e-05 -1.59942e-06 1.65214e-05
2.57506e-05 -4.99736e-06 1.68883e-05
2.66988e-05 -8.91713e-06 1.75096e-05
2.61076e-05 1.50608e-05 1.80254e-05
5.63313e-06 2.76177e-05 1.75095e-05
8.5086e-06 2.48067e-05 1.69111e-05
1.1217e-05 2.2641e-05 1.65293e-05
1.40045e-05 2.10221e-05 1.65247e-05
1.72216e-05 1.97934e-05 1.6885e-05
2.11149e-05 1.86344e-05 1.75253e-05
0 0 0
0 0 0
0 0 0
0 0 0
0 0 0
0 0 0
2.48945e-08 3.01543e-05 -1.80342e-05
-2.11405e-05 1.87124e-05 -1.75497e-05
-1.72325e-05 1.98338e-05 -1.69208e-05
-1.40069e-05 2.10542e-05 -1.65549e-05
-1.12068e-05 2.26648e-05 -1.65487e-05
-8.52407e-06 2.48328e-05 -1.69013e-05
-5.56779e-06 2.76217e-05 -1.75374e-05
-2.64498e-05 1.46791e-05 -1.80334e-05
-2.67687e-05 -9.0115e-06 -1.75774e-05
-2.58062e-05 -5.03545e-06 -1.69259e-05
-2.52544e-05 -1.6362e-06 -1.65713e-05
-2.52574e-05 1.60784e-06 -1.65743e-05
-2.57984e-05 5.02285e-06 -1.69241e-05
-2.67549e-05 8.98459e-06 -1.75639e-05
-2.64367e-05 -1.47254e-05 -1.80622e-05
-5.54105e-06 -2.76361e-05 -1.75296e-05
-8.47658e-06 -2.48418e-05 -1.69006e-05
-1.117e-05 -2.26842e-05 -1.65561e-05
-1.39705e-05 -2.10872e-05 -1.65595e-05
-1.72149e-05 -1.98691e-05 -1.69366e-05
-2.11341e-05 -1.87491e-05 -1.75622e-05
8.98401e-08 -3.0139e-05 -1.80293e-05
2.11239e-05 -1.86248e-05 -1.75114e-05
1.72446e-05 -1.97621e-05 -1.68728e-05
1.40338e-05 -2.10111e-05 -1.65115e-05
1.1225e-05 -2.25929e-05 -1.65461e-05
8.58123e-06 -2.478e-05 -1.68741e-05
5.65467e-06 -2.76264e-05 -1.75349e-05
2.61245e-05 -1.50597e-05 -1.80283e-05
2.67168e-05 8.93837e-06 -1.75015e-05
2.5722e-05 5.04957e-06 -1.69083e-05
2.52065e-05 1.62331e-06 -1.65231e-05
2.52036e-05 -1.59942e-06 -1.65214e-05
2.57506e-05 -4.99736e-06 -1.68883e-05
2.66988e-05 -8.91713e-06 -1.75096e-05
2.61076e-05 1.50608e-05 -1.80254e-05
5.63313e-06 2.76177e-05 -1.75095e-05
8.5086e-06 2.48067e-05 -1.69111e-05
1.1217e-05 2.2641e-05 -1.65293e-05
1.40045e-05 2.10221e-05 -1.65247e-05
1.72216e-05 1.97934e-05 -1.6885e-05
2.11149e-05 1.86344e-05 -1.75253e-05
0 0 0
0 0 0
0 0 0
0 0 0
0 0 0
0 0 0
1.79367e-06 8.58743e-07 4.55223e-06
1.73781e-06 -8.25111e-07 4.46078e-06
4.31952e-07 1.84962e-06 4.4951e-06
4.36096e-07 -1.78062e-06 4.35607e-06
-1.84748e-06 2.0963e-08 4.42234e-06
-1.12308e-06 -1.30887e-06 4.15098e-06
-1.1592e-06 1.30679e-06 4.19976e-06
-2.2513e-05 -7.28764e-06 1.69999e-05
-2.21963e-05 7.37153e-06 1.69685e-05
-4.86043e-06 2.28984e-05 1.69369e-05
-4.85794e-06 -2.31315e-05 1.69638e-05
1.74211e-05 1.56354e-05 1.69298e-05
1.75687e-05 -1.55364e-05 1.6939e-05
2.10734e-05 3.16386e-06 1.63243e-05
-1.39531e-05 1.71512e-05 1.64783e-05
-1.35911e-05 -1.67412e-05 1.64098e-05
7.76781e-06 1.98194e-05 1.63311e-05
7.68483e-06 -2.03099e-05 1.64024e-05
2.14722e-05 -3.44371e-06 1.64001e-05
-2.11026e-05 6.58809e-09 1.62466e-05
-2.24203e-05 1.09997e-05 1.74535e-05
-1.87508e-05 9.25465e-06 1.6627e-05
-1.79827e-05 5.79542e-06 1.60362e-05
-1.49839e-05 7.44829e-06 1.54862e-05
-1.42244e-05 4.3077e-06 1.48295e-05
-1.15325e-05 5.74386e-06 1.40946e-05
-1.0858e-05 3.06872e-06 1.33734e-05
-8.40044e-06 4.30485e-06 1.24042e-05
-9.05875e-06 7.01337e-06 1.34562e-05
-6.20407e-06 5.48848e-06 1.16888e-05
-6.82827e-06 8.2494e-06 1.30798e-05
-4.28137e-06 6.67487e-06 1.14503e-05
-4.79998e-06 9.60987e-06 1.30937e-05
-2.40086e-06 7.9933e-06 1.17228e-05
-2.81284e-06 1.11672e-05 1.34747e-05
-4.75408e-07 9.59524e-06 1.25008e-05
-7.3835e-07 1.29968e-05 1.41415e-05
1.73107e-06 1.15177e-05 1.35348e-05
-5.53466e-06 1.27003e-05 1.44367e-05
1.68507e-06 8.22393e-06 1.17474e-05
4.00416e-06 1.01208e-05 1.31508e-05
3.70533e-06 7.09791e-06 1.14781e-05
6.06737e-06 8.96662e-06 1.31132e-05
5.76679e-06 6.10676e-06 1.17354e-05
8.35804e-06 8.02028e-06 1.34918e-05
8.10561e-06 5.19524e-06 1.25002e-05
1.09539e-05 7.09702e-06 1.41468e-05
1.07459e-05 4.32277e-06 1.34989e-05
8.53048e-06 1.10374e-05 1.44606e-05
7.93765e-06 2.64373e-06 1.17272e-05
1.0646e-05 1.73719e-06 1.31038e-05
7.94865e-06 3.58759e-07 1.14554e-05
1.08064e-05 -7.59109e-07 1.31239e-05
8.1116e-06 -1.93779e-06 1.17089e-05
1.10982e-05 -3.31283e-06 1.34837e-05
8.46969e-06 -4.42396e-06 1.24439e-05
1.15037e-05 -6.00285e-06 1.41092e-05
8.95553e-06 -7.13808e-06 1.34279e-05
6.14749e-06 -5.49439e-06 1.16411e-05
6.64447e-06 -8.30082e-06 1.30181e-05
4.10519e-06 -6.58848e-06 1.13108e-05
4.52334e-06 -9.55082e-06 1.29881e-05
2.24228e-06 -7.85825e-06 1.15972e-05
2.48482e-06 -1.10018e-05 1.33508e-05
2.2529e-07 -9.37365e-06 1.23534e-05
3.30012e-07 -1.27697e-05 1.40337e-05
-1.91543e-06 -1.11506e-05 1.33768e-05
-1.84106e-06 -7.92158e-06 1.1582e-05
-4.16788e-06 -9.87481e-06 1.30849e-05
-3.81392e-06 -6.73047e-06 1.1317e-05
-6.34559e-06 -8.66198e-06 1.30991e-05
-5.89127e-06 -5.69799e-06 1.16283e-05
-8.49969e-06 -7.43577e-06 1.33795e-05
-8.16751e-06 -4.72804e-06 1.24085e-05
-1.10956e-05 -6.40274e-06 1.40697e-05
-4.37163e-06 -1.31231e-05 1.44335e-05
-1.08088e-05 -3.65067e-06 1.34391e-05
7.22609e-06 -1.13727e-05 1.42728e-05
-7.74167e-06 1.98268e-06 1.14928e-05
-1.32161e-05 1.03505e-06 1.42108e-05
1.72912e-06 1.50827e-05 1.49521e-05
1.3768e-05 4.62236e-07 1.43876e-05
1.38431e-05 6.10008e-06 1.49316e-05
-9.69403e-06 1.01962e-05 1.45324e-05
-5.41599e-06 -3.19765e-06 1.0182e-05
-1.17136e-05 -9.29731e-06 1.48891e-05
1.18823e-05 -8.76018e-06 1.4787e-05
1.47817e-05 -7.47358e-06 1.54032e-05
-1.39597e-05 -5.24388e-06 1.48616e-05
2.79581e-06 -1.45161e-05 1.47961e-05
4.24562e-07 -1.64994e-05 1.53977e-05
3.51843e-06 4.39693e-06 9.58105e-06
1.40105e-05 9.29903e-06 1.54915e-05
1.79307e-05 8.14494e-06 1.63005e-05
-1.56754e-05 1.13953e-05 1.62334e-05
-1.09408e-06 1.6769e-05 1.54952e-05
1.90686e-06 1.96216e-05 1.63109e-05
-2.09187e-06 5.22007e-06 9.59755e-06
5.55393e-06 -7.84602e-07 9.59409e-06
3.58595e-06 -3.68356e-06 9.08193e-06
-1.77963e-06 -5.17857e-06 9.44956e-06
-2.24687e-05 -1.10108e-05 1.74743e-05
-1.87981e-05 -9.2414e-06 1.6651e-05
2.11478e-05 1.41648e-05 1.75056e-05
2.07537e-05 -1.43176e-05 1.74355e-05
-1.7646e-06 -2.54465e-05 1.75109e-05
-1.68213e-06 2.54105e-05 1.75156e-05
1.7713e-05 -1.19069e-05 1.66871e-05
2.06457e-05 -1.07511e-05 1.71159e-05
3.77564e-06 -1.89851e-05 1.61393e-05
7.6853e-07 -2.03457e-05 1.64828e-05
-1.9405e-05 -1.26505e-05 1.71431e-05
-1.37311e-05 -2.30692e-06 1.44718e-05
-1.65927e-05 -3.70142e-06 1.54775e-05
-1.03758e-05 -1.09638e-06 1.2952e-05
2.4452e-05 1.10728e-05 1.76516e-05
2.54975e-05 -1.24032e-05 1.78481e-05
2.64925e-06 2.67259e-05 1.76605e-05
2.521e-06 -2.64135e-05 1.76293e-05
3.33946e-06 -2.30318e-05 1.7029e-05
-2.05389e-06 -1.83198e-05 1.59508e-05
4.05906e-06 2.37913e-05 1.71303e-05
2.26141e-05 8.37922e-06 1.71192e-05
4.61359e-06 1.73133e-05 1.57272e-05
1.44269e-05 -1.31194e-05 1.61373e-05
-1.57876e-05 -1.09847e-05 1.62145e-05
-1.67997e-05 -3.81426e-07 1.53773e-05
1.73059e-05 4.68746e-06 1.57256e-05
6.55218e-08 -6.38728e-06 1.02674e-05
1.74171e-06 -4.84844e-06 9.09244e-06
5.85044e-06 -2.9355e-06 1.03781e-05
-2.14441e-05 3.75049e-06 1.64588e-05
5.72934e-06 -1.62744e-05 1.55076e-05
9.08342e-06 -1.74989e-05 1.59974e-05
1.75721e-05 1.18816e-05 1.66722e-05
1.39942e-05 -1.63822e-05 1.64011e-05
1.07399e-05 -1.37889e-05 1.555e-05
-3.54795e-06 -4.22017e-06 9.50071e-06
5.39909e-06 1.13849e-06 9.49899e-06
5.21803e-06 3.22286e-06 1.00472e-05
-1.74978e-06 -2.83544e-05 1.78768e-05
1.89205e-06 5.29887e-06 9.58439e-06
-1.13823e-07 6.10498e-06 1.00387e-05
-3.7849e-06 4.12772e-06 9.57835e-06
-5.62265e-06 3.03417e-06 1.02852e-05
-5.16544e-06 1.04067e-06 9.21355e-06
-7.5272e-06 -6.17388e-08 1.11723e-05
-4.33435e-06 -8.10274e-07 8.3818e-06
-3.10857e-06 1.87233e-06 7.37402e-06
-2.2081e-05 -3.60773e-06 1.65157e-05
2.34061e-05 -1.56879e-05 1.78361e-05
-1.50719e-06 2.11678e-05 1.6682e-05
2.12615e-05 -8.45191e-08 1.62256e-05
1.7622e-05 -1.64679e-06 1.55813e-05
1.73476e-05 -4.94164e-06 1.57706e-05
2.18914e-05 -7.45107e-06 1.69135e-05
-2.31821e-05 -1.42545e-05 1.78326e-05
1.73245e-05 1.64886e-06 1.55084e-05
-1.734e-06 2.84729e-05 1.7894e-05
-4.2207e-07 3.6834e-06 7.49526e-06
2.37718e-05 1.57423e-05 1.78845e-05
-1.74973e-05 1.56422e-05 1.69749e-05
-1.06262e-05 -1.8466e-05 1.6255e-05
-1.00995e-05 -1.43422e-05 1.55716e-05
-7.50773e-06 -1.60948e-05 1.5622e-05
-7.32209e-06 -2.01204e-05 1.63952e-05
-1.07044e-05 1.85351e-05 1.62667e-05
-1.03473e-05 1.4384e-05 1.56192e-05
-7.7726e-06 2.04923e-05 1.64441e-05
-4.25297e-06 1.86096e-05 1.60529e-05
1.07596e-05 1.83453e-05 1.62261e-05
1.38916e-05 1.69348e-05 1.64309e-05
1.40419e-05 1.29728e-05 1.60512e-05
-7.36153e-06 1.62882e-05 1.56384e-05
1.05251e-05 1.45469e-05 1.56451e-05
7.74871e-06 1.60922e-05 1.56138e-05
-3.11645e-06 -1.89876e-06 7.39315e-06
-7.25761e-06 -1.24219e-05 1.46251e-05
3.00865e-06 4.036e-08 6.60095e-06
4.87255e-06 1.35227e-05 1.4618e-05
1.40759e-05 -2.26038e-06 1.45704e-05
-1.72897e-05 -1.52166e-05 1.69454e-05
-1.73664e-05 2.42029e-06 1.55977e-05
-1.22046e-05 8.91189e-06 1.49434e-05
-7.70559e-06 -2.29251e-06 1.15546e-05
-1.24497e-05 1.18126e-05 1.55399e-05
-1.42735e-07 -3.75421e-06 7.55415e-06
2.73022e-06 2.27207e-06 7.2519e-06
-2.00385e-06 -1.46504e-05 1.4808e-05
9.36505e-06 -1.00682e-05 1.43893e-05
1.38607e-05 3.1578e-06 1.4566e-05
-7.34001e-06 1.11993e-05 1.42602e-05
4.9972e-06 -1.27747e-05 1.43692e-05
1.10318e-05 1.04305e-05 1.49196e-05
-3.59643e-06 1.46852e-05 1.4908e-05
-4.63545e-06 -1.66168e-05 1.55488e-05
-1.9507e-05 1.28924e-05 1.71613e-05
-2.31269e-05 1.48581e-05 1.78434e-05
-1.29049e-05 -1.2686e-05 1.58125e-05
3.76079e-06 -1.58612e-06 7.90692e-06
1.76439e-06 2.92227e-06 7.08441e-06
-9.23045e-06 -1.06094e-05 1.45317e-05
1.72774e-06 -2.82315e-06 6.93104e-06
9.9473e-07 2.41168e-05 1.73085e-05
2.13679e-05 1.11938e-05 1.72986e-05
-1.46646e-05 -7.95337e-06 1.54853e-05
1.3708e-05 -4.78631e-06 1.46906e-05
-1.90988e-06 -2.17629e-05 1.68027e-05
1.80604e-05 -8.41904e-06 1.63407e-05
-1.66789e-05 -6.32855e-06 1.57824e-05
-4.329e-07 -1.92232e-06 4.79846e-06
-1.80537e-06 2.99544e-06 7.17716e-06
-2.5052e-05 -1.29818e-05 1.79223e-05
-2.51272e-05 -1.45073e-05 1.80021e-05
-2.50452e-05 1.30337e-05 1.7906e-05
-2.5118e-05 1.465e-05 1.79821e-05
-1.64845e-06 -3.12484e-06 7.20989e-06
6.32793e-06 1.13684e-05 1.40765e-05
5.3371e-07 -2.40861e-05 1.73022e-05
-5.22777e-07 1.80954e-06 4.645e-06
7.40744e-06 -1.43436e-05 1.51523e-05
2.33028e-05 -1.32093e-05 1.77288e-05
2.36327e-05 -1.05375e-05 1.74908e-05
1.19884e-05 -1.82109e-05 1.62932e-05
1.47301e-05 -1.01466e-05 1.57956e-05
-1.00271e-05 1.00124e-06 1.27546e-05
-1.74001e-06 -8.15901e-07 4.72344e-06
7.69063e-07 3.70835e-06 7.57313e-06
2.34307e-06 -1.99716e-06 6.55527e-06
2.01565e-05 5.89781e-06 1.64536e-05
5.07008e-06 2.05959e-05 1.6496e-05
3.42118e-07 -2.768e-05 1.7854e-05
-1.73123e-06 7.09111e-07 4.60632e-06
-3.2115e-06 6.23047e-07 6.82413e-06
3.57721e-06 1.47541e-06 7.63661e-06
4.99226e-07 2.83238e-05 1.79273e-05
2.47603e-05 1.37341e-05 1.79184e-05
-2.03283e-05 1.55358e-05 1.7429e-05
1.17871e-06 1.36447e-06 4.45985e-06
-2.06396e-05 -1.57284e-05 1.75276e-05
-1.89989e-05 -2.32218e-06 1.59461e-05
-1.95591e-05 -5.58498e-06 1.63323e-05
9.05682e-07 -3.24775e-06 7.00609e-06
-4.36602e-06 -1.97893e-05 1.63218e-05
-7.93727e-06 1.38344e-05 1.51011e-05
1.16575e-06 -1.30418e-06 4.33929e-06
1.19344e-05 -1.12283e-05 1.52922e-05
6.13307e-06 -2.26961e-05 1.68205e-05
-1.45221e-05 1.43554e-05 1.63236e-05
7.92907e-06 1.33212e-05 1.4948e-05
1.79367e-06 8.58743e-07 -4.55223e-06
1.73781e-06 -8.25111e-07 -4.46078e-06
4.31952e-07 1.84962e-06 -4.4951e-06
4.36096e-07 -1.78062e-06 -4.35607e-06
-1.84748e-06 2.0963e-08 -4.42234e-06
-1.12308e-06 -1.30887e-06 -4.15098e-06
-1.1592e-06 1.30679e-06 -4.19976e-06
-2.2513e-05 -7.28764e-06 -1.69999e-05
-2.21963e-05 7.37153e-06 -1.69685e-05
-4.86043e-06 2.28984e-05 -1.69369e-05
-4.85794e-06 -2.31315e-05 -1.69638e-05
1.74211e-05 1.56354e-05 -1.69298e-05
1.75687e-05 -1.55364e-05 -1.6939e-05
2.10734e-05 3.16386e-06 -1.63243e-05
-1.39531e-05 1.71512e-05 -1.64783e-05
-1.35911e-05 -1.67412e-05 -1.64098e-05
7.76781e-06 1.98194e-05 -1.63311e-05
7.68483e-06 -2.03099e-05 -1.64024e-05
2.14722e-05 -3.44371e-06 -1.64001e-05
-2.11026e-05 6.58809e-09 -1.62466e-05
-2.24203e-05 1.09997e-05 -1.74535e-05
-1.87508e-05 9.25465e-06 -1.6627e-05
-1.79827e-05 5.79542e-06 -1.60362e-05
-1.49839e-05 7.44829e-06 -1.54862e-05
-1.42244e-05 4.3077e-06 -1.48295e-05
-1.15325e-05 5.74386e-06 -1.40946e-05
-1.0858e-05 3.06872e-06 -1.33734e-05
-8.40044e-06 4.30485e-06 -1.24042e-05
-9.05875e-06 7.01337e-06 -1.34562e-05
-6.20407e-06 5.48848e-06 -1.16888e-05
-6.82827e-06 8.2494e-06 -1.30798e-05
-4.28137e-06 6.67487e-06 -1.14503e-05
-4.79998e-06 9.60987e-06 -1.30937e-05
-2.40086e-06 7.9933e-06 -1.17228e-05
-2.81284e-06 1.11672e-05 -1.34747e-05
-4.75408e-07 9.59524e-06 -1.25008e-05
-7.3835e-07 1.29968e-05 -1.41415e-05
1.73107e-06 1.15177e-05 -1.35348e-05
-5.53466e-06 1.27003e-05 -1.44367e-05
1.68507e-06 8.22393e-06 -1.17474e-05
4.00416e-06 1.01208e-05 -1.31508e-05
3.70533e-06 7.09791e-06 -1.14781e-05
6.06737e-06 8.96662e-06 -1.31132e-05
5.76679e-06 6.10676e-06 -1.17354e-05
8.35804e-06 8.02028e-06 -1.34918e-05
8.10561e-06 5.19524e-06 -1.25002e-05
1.09539e-05 7.09702e-06 -1.41468e-05
1.07459e-05 4.32277e-06 -1.34989e-05
8.53048e-06 1.10374e-05 -1.44606e-05
7.93765e-06 2.64373e-06 -1.17272e-05
1.0646e-05 1.73719e-06 -1.31038e-05
7.94865e-06 3.58759e-07 -1.14554e-05
1.08064e-05 -7.59109e-07 -1.31239e-05
8.1116e-06 -1.93779e-06 -1.17089e-05
1.10982e-05 -3.31283e-06 -1.34837e-05
8.46969e-06 -4.42396e-06 -1.24439e-05
1.15037e-05 -6.00285e-06 -1.41092e-05
8.95553e-06 -7.13808e-06 -1.34279e-05
6.14749e-06 -5.49439e-06 -1.16411e-05
6.64447e-06 -8.30082e-06 -1.30181e-05
4.10519e-06 -6.58848e-06 -1.13108e-05
4.52334e-06 -9.55082e-06 -1.29881e-05
2.24228e-06 -7.85825e-06 -1.15972e-05
2.48482e-06 -1.10018e-05 -1.33508e-05
2.2529e-07 -9.37365e-06 -1.23534e-05
3.30012e-07 -1.27697e-05 -1.40337e-05
-1.91543e-06 -1.11506e-05 -1.33768e-05
-1.84106e-06 -7.92158e-06 -1.1582e-05
-4.16788e-06 -9.87481e-06 -1.30849e-05
-3.81392e-06 -6.73047e-06 -1.1317e-05
-6.34559e-06 -8.66198e-06 -1.30991e-05
-5.89127e-06 -5.69799e-06 -1.16283e-05
-8.49969e-06 -7.43577e-06 -1.33795e-05
-8.16751e-06 -4.72804e-06 -1.24085e-05
-1.10956e-05 -6.40274e-06 -1.40697e-05
-4.37163e-06 -1.31231e-05 -1.44335e-05
-1.08088e-05 -3.65067e-06 -1.34391e-05
7.22609e-06 -1.13727e-05 -1.42728e-05
-7.74167e-06 1.98268e-06 -1.14928e-05
-1.32161e-05 1.03505e-06 -1.42108e-05
1.72912e-06 1.50827e-05 -1.49521e-05
1.3768e-05 4.62236e-07 -1.43876e-05
1.38431e-05 6.10008e-06 -1.49316e-05
-9.69403e-06 1.01962e-05 -1.45324e-05
-5.41599e-06 -3.19765e-06 -1.0182e-05
-1.17136e-05 -9.29731e-06 -1.48891e-05
1.18823e-05 -8.76018e-06 -1.4787e-05
1.47817e-05 -7.47358e-06 -1.54032e-05
-1.39597e-05 -5.24388e-06 -1.48616e-05
2.79581e-06 -1.45161e-05 -1.47961e-05
4.24562e-07 -1.64994e-05 -1.53977e-05
3.51843e-06 4.39693e-06 -9.58105e-06
1.40105e-05 9.29903e-06 -1.54915e-05
1.79307e-05 8.14494e-06 -1.63005e-05
-1.56754e-05 1.13953e-05 -1.62334e-05
-1.09408e-06 1.6769e-05 -1.54952e-05
1.90686e-06 1.96216e-05 -1.63109e-05
-2.09187e-06 5.22007e-06 -9.59755e-06
5.55393e-06 -7.84602e-07 -9.59409e-06
3.58595e-06 -3.68356e-06 -9.08193e-06
-1.77963e-06 -5.17857e-06 -9.44956e-06
-2.24687e-05 -1.10108e-05 -1.74743e-05
-1.87981e-05 -9.2414e-06 -1.6651e-05
2.11478e-05 1.41648e-05 -1.75056e-05
2.07537e-05 -1.43176e-05 -1.74355e-05
-1.7646e-06 -2.54465e-05 -1.75109e-05
-1.68213e-06 2.54105e-05 -1.75156e-05
1.7713e-05 -1.19069e-05 -1.66871e-05
2.06457e-05 -1.07511e-05 -1.71159e-05
3.77564e-06 -1.89851e-05 -1.61393e-05
7.6853e-07 -2.03457e-05 -1.64828e-05
-1.9405e-05 -1.26505e-05 -1.71431e-05
-1.37311e-05 -2.30692e-06 -1.44718e-05
-1.65927e-05 -3.70142e-06 -1.54775e-05
-1.03758e-05 -1.09638e-06 -1.2952e-05
2.4452e-05 1.10728e-05 -1.76516e-05
2.54975e-05 -1.24032e-05 -1.78481e-05
2.64925e-06 2.67259e-05 -1.76605e-05
2.521e-06 -2.64135e-05 -1.76293e-05
3.33946e-06 -2.30318e-05 -1.7029e-05
-2.05389e-06 -1.83198e-05 -1.59508e-05
4.05906e-06 2.37913e-05 -1.71303e-05
2.26141e-05 8.37922e-06 -1.71192e-05
4.61359e-06 1.73133e-05 -1.57272e-05
1.44269e-05 -1.31194e-05 -1.61373e-05
-1.57876e-05 -1.09847e-05 -1.62145e-05
-1.67997e-05 -3.81426e-07 -1.53773e-05
1.73059e-05 4.68746e-06 -1.57256e-05
6.55218e-08 -6.38728e-06 -1.02674e-05
1.74171e-06 -4.84844e-06 -9.09244e-06
5.85044e-06 -2.9355e-06 -1.03781e-05
-2.14441e-05 3.75049e-06 -1.64588e-05
5.72934e-06 -1.62744e-05 -1.55076e-05
9.08342e-06 -1.74989e-05 -1.59974e-05
1.75721e-05 1.18816e-05 -1.66722e-05
1.39942e-05 -1.63822e-05 -1.64011e-05
1.07399e-05 -1.37889e-05 -1.555e-05
-3.54795e-06 -4.22017e-06 -9.50071e-06
5.39909e-06 1.13849e-06 -9.49899e-06
5.21803e-06 3.22286e-06 -1.00472e-05
-1.74978e-06 -2.83544e-05 -1.78768e-05
1.89205e-06 5.29887e-06 -9.58439e-06
-1.13823e-07 6.10498e-06 -1.00387e-05
-3.7849e-06 4.12772e-06 -9.57835e-06
-5.62265e-06 3.03417e-06 -1.02852e-05
-5.16544e-06 1.04067e-06 -9.21355e-06
-7.5272e-06 -6.17388e-08 -1.11723e-05
-4.33435e-06 -8.10274e-07 -8.3818e-06
-3.10857e-06 1.87233e-06 -7.37402e-06
-2.2081e-05 -3.60773e-06 -1.65157e-05
2.34061e-05 -1.56879e-05 -1.78361e-05
-1.50719e-06 2.11678e-05 -1.6682e-05
2.12615e-05 -8.45191e-08 -1.62256e-05
1.7622e-05 -1.64679e-06 -1.55813e-05
1.73476e-05 -4.94164e-06 -1.57706e-05
2.18914e-05 -7.45107e-06 -1.69135e-05
-2.31821e-05 -1.42545e-05 -1.78326e-05
1.73245e-05 1.64886e-06 -1.55084e-05
-1.734e-06 2.84729e-05 -1.7894e-05