# vtk DataFile Version 3.0
vtk output at time 30
ASCII
DATASET UNSTRUCTURED_GRID
POINTS 626 float
-3.68058e-05 0.000978749 0 3.68058e-05 0.000978749 0 -0.000829194 0.00052125 0 
-0.0008235 0.0005 0 -0.000866 0.0004575 0 -0.000866 -0.0004575 0 
-0.0008235 -0.0005 0 -0.000829194 -0.00052125 0 -3.68058e-05 -0.000978749 0 
3.68058e-05 -0.000978749 0 0.000829194 -0.00052125 0 0.000866 -0.0004575 0 
0.000866 0.0004575 0 0.000829194 0.00052125 0 8.5e-05 0 0 
-3.68058e-05 0.000978749 -0.001 3.68058e-05 0.000978749 -0.001 -0.000829194 0.00052125 -0.001 
-0.0008235 0.0005 -0.001 -0.000866 0.0004575 -0.001 -0.000866 -0.0004575 -0.001 
-0.0008235 -0.0005 -0.001 -0.000829194 -0.00052125 -0.001 -3.68058e-05 -0.000978749 -0.001 
3.68058e-05 -0.000978749 -0.001 0.000829194 -0.00052125 -0.001 0.000866 -0.0004575 -0.001 
0.000866 0.0004575 -0.001 0.000829194 0.00052125 -0.001 8.5e-05 0 -0.001 
8.46223e-17 0.0009575 0 -0.000715996 0.000586607 0 -0.000602797 0.000651965 0 
-0.000489599 0.000717321 0 -0.000376401 0.000782678 0 -0.000263202 0.000848036 0 
-0.000150004 0.000913393 0 -0.000835948 0.000469948 0 -0.000866 -0.000326786 0 
-0.000866 -0.000196071 0 -0.000866 -6.53571e-05 0 -0.000866 6.53571e-05 0 
-0.000866 0.000196071 0 -0.000866 0.000326786 0 -0.000835948 -0.000469948 0 
-0.000150004 -0.000913393 0 -0.000263202 -0.000848036 0 -0.000376401 -0.000782678 0 
-0.000489599 -0.000717321 0 -0.000602797 -0.000651965 0 -0.000715996 -0.000586607 0 
8.47648e-17 -0.0009575 0 0.000715996 -0.000586607 0 0.000602797 -0.000651965 0 
0.000489599 -0.000717321 0 0.000376401 -0.000782678 0 0.000263202 -0.000848036 0 
0.000150004 -0.000913393 0 0.000829194 -0.00047875 0 0.000866 0.000326786 0 
0.000866 0.000196071 0 0.000866 6.53571e-05 0 0.000866 -6.53571e-05 0 
0.000866 -0.000196071 0 0.000866 -0.000326786 0 0.000829194 0.00047875 0 
0.000150004 0.000913393 0 0.000263202 0.000848036 0 0.000376401 0.000782678 0 
0.000489599 0.000717321 0 0.000602797 0.000651965 0 0.000715996 0.000586607 0 
5.29966e-05 6.64557e-05 0 -1.89143e-05 8.28689e-05 0 -7.65824e-05 3.68801e-05 0 
-7.65824e-05 -3.68801e-05 0 -1.89143e-05 -8.28689e-05 0 5.29966e-05 -6.64557e-05 0 
8.46223e-17 0.0009575 -0.001 -0.000715996 0.000586607 -0.001 -0.000602797 0.000651965 -0.001 
-0.000489599 0.000717321 -0.001 -0.000376401 0.000782678 -0.001 -0.000263202 0.000848036 -0.001 
-0.000150004 0.000913393 -0.001 -0.000835948 0.000469948 -0.001 -0.000866 -0.000326786 -0.001 
-0.000866 -0.000196071 -0.001 -0.000866 -6.53571e-05 -0.001 -0.000866 6.53571e-05 -0.001 
-0.000866 0.000196071 -0.001 -0.000866 0.000326786 -0.001 -0.000835948 -0.000469948 -0.001 
-0.000150004 -0.000913393 -0.001 -0.000263202 -0.000848036 -0.001 -0.000376401 -0.000782678 -0.001 
-0.000489599 -0.000717321 -0.001 -0.000602797 -0.000651965 -0.001 -0.000715996 -0.000586607 -0.001 
8.47648e-17 -0.0009575 -0.001 0.000715996 -0.000586607 -0.001 0.000602797 -0.000651965 -0.001 
0.000489599 -0.000717321 -0.001 0.000376401 -0.000782678 -0.001 0.000263202 -0.000848036 -0.001 
0.000150004 -0.000913393 -0.001 0.000829194 -0.00047875 -0.001 0.000866 0.000326786 -0.001 
0.000866 0.000196071 -0.001 0.000866 6.53571e-05 -0.001 0.000866 -6.53571e-05 -0.001 
0.000866 -0.000196071 -0.001 0.000866 -0.000326786 -0.001 0.000829194 0.00047875 -0.001 
0.000150004 0.000913393 -0.001 0.000263202 0.000848036 -0.001 0.000376401 0.000782678 -0.001 
0.000489599 0.000717321 -0.001 0.000602797 0.000651965 -0.001 0.000715996 0.000586607 -0.001 
5.29966e-05 6.64557e-05 -0.001 -1.89143e-05 8.28689e-05 -0.001 -7.65824e-05 3.68801e-05 -0.001 
-7.65824e-05 -3.68801e-05 -0.001 -1.89143e-05 -8.28689e-05 -0.001 5.29966e-05 -6.64557e-05 -0.001 
0.000131234 6.38474e-05 0 0.00012964 -6.2443e-05 0 3.13827e-05 0.0001394 0 
3.12554e-05 -0.000136939 0 -0.000140461 8.25467e-19 0 -8.90565e-05 -0.000102707 0 
-9.04142e-05 0.000102872 0 -0.000765769 -0.00025965 0 -0.000756873 0.000262774 0 
-0.00015609 0.000787505 0 -0.000155807 -0.00079355 0 0.000605069 0.000528035 0 
0.000608694 -0.00052497 0 0.000744069 0.000116929 0 -0.000494418 0.000596218 0 
-0.000483866 -0.000584648 0 0.000269496 0.000702219 0 0.000263201 -0.000717324 0 
0.000754429 -0.000127825 0 -0.000748858 5.84659e-07 0 -0.000747838 0.000373886 0 
-0.0006542 0.000324842 0 -0.000645137 0.000210123 0 -0.000550884 0.000274171 0 
-0.000538857 0.000163195 0 -0.00045062 0.000224461 0 -0.000438393 0.000123907 0 
-0.000354088 0.000181668 0 -0.000363908 0.000282171 0 -0.000270361 0.000239477 0 
-0.000279138 0.000337653 0 -0.000188888 0.000294791 0 -0.000196448 0.000393271 0 
-0.000104767 0.000348259 0 -0.000113332 0.000449012 0 -2.01066e-05 0.000403223 0 
-2.89189e-05 0.000507105 0 6.9524e-05 0.000461596 0 -0.000213644 0.000490203 0 
7.33757e-05 0.000357726 0 0.000163331 0.00041299 0 0.000163359 0.000313022 0 
0.000248077 0.000366368 0 0.000250914 0.000265758 0 0.000335709 0.000322266 0 
0.000340555 0.000218148 0 0.000427299 0.000276717 0 0.000431508 0.000173093 0 
0.000328731 0.000425633 0 0.00034586 0.000114823 0 0.000435362 7.05241e-05 0 
0.000350892 1.5455e-05 0 0.000441547 -3.11896e-05 0 0.000353547 -8.47783e-05 0 
0.000445767 -0.000132964 0 0.000356135 -0.000186358 0 0.000449094 -0.000234674 0 
0.000359978 -0.000287876 0 0.00026856 -0.000240545 0 0.000271895 -0.000341045 0 
0.000181792 -0.00029305 0 0.00018533 -0.000392851 0 9.75701e-05 -0.00034483 0 
9.98764e-05 -0.000444884 0 8.75116e-06 -0.000396343 0 1.20916e-05 -0.000500496 0 
-7.83929e-05 -0.000449843 0 -8.1471e-05 -0.000347249 0 -0.000171566 -0.000403733 0 
-0.000169889 -0.000298891 0 -0.000259867 -0.000354132 0 -0.000257696 -0.000249137 0 
-0.00034313 -0.000299896 0 -0.000344514 -0.000199127 0 -0.000434309 -0.000250039 0 
-0.000169832 -0.000505815 0 -0.000435227 -0.000146227 0 0.000280331 -0.000442424 0 
-0.000340889 8.76793e-05 0 -0.000515252 4.06198e-05 0 6.50491e-05 0.000568253 0 
0.00053278 1.74743e-05 0 0.000522071 0.000229831 0 -0.00037162 0.000391659 0 
-0.000255272 -0.000150439 0 -0.000442893 -0.000350705 0 0.000450067 -0.000332559 0 
0.000545175 -0.000276306 0 -0.000527797 -0.000197598 0 0.000105306 -0.000551033 0 
1.45836e-05 -0.000609147 0 0.00017145 0.000214453 0 0.000515525 0.000341711 0 
0.000636086 0.000290368 0 -0.000558657 0.000404468 0 -4.01232e-05 0.000616718 0 
6.60192e-05 0.000696422 0 -0.000101806 0.0002546 0 0.000271142 -3.88908e-05 0 
0.000179455 -0.00018534 0 -8.79553e-05 -0.000254307 0 -0.000749267 -0.000373451 0 
-0.000655941 -0.000323397 0 0.000709746 0.000466718 0 0.000698426 -0.000473086 0 
-5.25801e-05 -0.00084886 0 -4.93005e-05 0.000848038 0 0.000617396 -0.000413362 0 
0.000702056 -0.000369817 0 0.000131459 -0.000679171 0 2.48171e-05 -0.000715924 0 
-0.000664217 -0.00042729 0 -0.000528828 -8.80444e-05 0 -0.000611101 -0.000136672 0 
-0.000426972 -4.45841e-05 0 0.000800669 0.000378216 0 0.000821144 -0.000415062 0 
7.2799e-05 0.00088254 0 6.81831e-05 -0.00087503 0 0.000104963 -0.000788946 0 
-7.40696e-05 -0.000660054 0 0.000126061 0.000809943 0 0.000764361 0.000295682 0 
0.000166862 0.000630623 0 0.000516462 -0.00046707 0 -0.000563585 -0.000389606 0 
-0.000622598 -1.40238e-05 0 0.000629891 0.000171529 0 2.5614e-06 -0.000299794 0 
8.6901e-05 -0.00024329 0 0.000272045 -0.000136982 0 -0.00075148 0.000138321 0 
0.000209366 -0.000599589 0 0.000324913 -0.000630055 0 0.000614044 0.00041245 0 
0.00049651 -0.000573327 0 0.000394822 -0.000507321 0 -0.000173714 -0.000206698 0 
0.000264897 5.63722e-05 0 0.000247997 0.000152811 0 -4.63327e-05 -0.000920208 0 
9.18688e-05 0.000258626 0 -5.54111e-06 0.000290558 0 -0.000184219 0.000201484 0 
-0.000263559 0.000142267 0 -0.000256427 5.13624e-05 0 -0.000336894 -2.06179e-06 0 
-0.000228499 -4.2388e-05 0 -0.00017589 0.000106626 0 -0.000769947 -0.000133367 0 
0.000767591 -0.000500293 0 -5.05874e-05 0.000737978 0 0.000754456 -3.51771e-06 0 
0.00064691 -6.15298e-05 0 0.000630483 -0.00018134 0 0.000749187 -0.000265543 0 
-0.000760805 -0.000462521 0 0.000638155 6.09315e-05 0 -4.46661e-05 0.000922995 0 
-2.37945e-05 0.000207237 0 0.000776979 0.000500181 0 -0.000605691 0.000527596 0 
-0.000377914 -0.000653727 0 -0.000372325 -0.000526022 0 -0.000275829 -0.000589621 0 
-0.000254285 -0.000710579 0 -0.000379307 0.000656222 0 -0.000379818 0.00052718 0 
-0.000266817 0.000721555 0 -0.000150544 0.000668174 0 0.000381963 0.00065079 0 
0.000493113 0.000590432 0 0.000505439 0.000463708 0 -0.000269094 0.000596608 0 
0.000385815 0.000532045 0 0.000283599 0.0005899 0 -0.000176405 -0.000108505 0 
-0.000278769 -0.000475415 0 0.000185395 2.33014e-06 0 0.000186773 0.000517571 0 
0.000540032 -8.68444e-05 0 -0.000600694 -0.000514877 0 -0.00063703 8.98033e-05 0 
-0.000459677 0.000335729 0 -0.000338836 -0.000100751 0 -0.000457327 0.000432721 0 
-8.72007e-06 -0.000210238 0 0.000156073 0.000129496 0 -7.70692e-05 -0.000555049 0 
0.00036091 -0.000389728 0 0.000531628 0.000120564 0 -0.000285451 0.000435562 0 
0.000192719 -0.000494604 0 0.00041642 0.00039368 0 -0.000135943 0.000554637 0 
-0.000170665 -0.000610079 0 -0.000666304 0.000434981 0 -0.000758736 0.000479231 0 
-0.000470189 -0.000458901 0 0.000203433 -8.59809e-05 0 0.000101846 0.000170114 0 
-0.00035513 -0.00040726 0 0.000100184 -0.000165831 0 2.96286e-05 0.00081537 0 
0.000720946 0.000381836 0 -0.000539809 -0.000292001 0 0.00052211 -0.000182426 0 
-6.41339e-05 -0.000753908 0 0.000638039 -0.000299861 0 -0.000605136 -0.000230182 0 
-3.41638e-05 -0.000145561 0 -0.000104037 0.000172396 0 -0.000808575 -0.00042774 0 
-0.000807207 -0.000465052 0 -0.00080817 0.000429771 0 -0.000806589 0.000469738 0 
-9.50634e-05 -0.000178909 0 0.000247777 0.000445058 0 1.48293e-05 -0.000814201 0 
-4.11555e-05 0.000140955 0 0.000276104 -0.000536845 0 0.000765969 -0.000436638 0 
0.000780871 -0.000362769 0 0.000424176 -0.000642018 0 0.00053413 -0.000368009 0 
-0.000416333 4.17911e-05 0 -0.000133891 -6.23822e-05 0 4.2574e-05 0.000206312 0 
[...]
POINT_DATA 626
VECTORS displacement float
-1.74391e-06 3.09624e-05 1.80587e-05
1.73558e-06 3.09814e-05 1.81038e-05
-2.59932e-05 1.69968e-05 1.80907e-05
-2.58477e-05 1.60369e-05 1.80553e-05
-2.77275e-05 1.39768e-05 1.80727e-05
-2.77204e-05 -1.40231e-05 1.80982e-05
-2.58189e-05 -1.60751e-05 1.81095e-05
-2.59894e-05 -1.70148e-05 1.81707e-05
-1.67737e-06 -3.09661e-05 1.80551e-05
1.75539e-06 -3.09676e-05 1.81055e-05
2.59506e-05 -1.69846e-05 1.80472e-05
2.77239e-05 -1.39407e-05 1.80471e-05
2.76793e-05 1.39934e-05 1.80953e-05
2.59219e-05 1.69969e-05 1.80497e-05
0 0 0
-1.74391e-06 3.09624e-05 -1.80587e-05
1.73558e-06 3.09814e-05 -1.81038e-05
-2.59932e-05 1.69968e-05 -1.80907e-05
-2.58477e-05 1.60369e-05 -1.80553e-05
-2.77275e-05 1.39768e-05 -1.80727e-05
-2.77204e-05 -1.40231e-05 -1.80982e-05
-2.58189e-05 -1.60751e-05 -1.81095e-05
-2.59894e-05 -1.70148e-05 -1.81707e-05
-1.67737e-06 -3.09661e-05 -1.80551e-05
1.75539e-06 -3.09676e-05 -1.81055e-05
2.59506e-05 -1.69846e-05 -1.80472e-05
2.77239e-05 -1.39407e-05 -1.80471e-05
2.76793e-05 1.39934e-05 -1.80953e-05
2.59219e-05 1.69969e-05 -1.80497e-05
0 0 0
2.48606e-08 3.01622e-05 1.80379e-05
-2.11473e-05 1.87171e-05 1.75538e-05
-1.72384e-05 1.98396e-05 1.69253e-05
-1.40117e-05 2.10609e-05 1.65597e-05
-1.12103e-05 2.26723e-05 1.65536e-05
-8.52617e-06 2.48408e-05 1.69059e-05
-5.56859e-06 2.76299e-05 1.75415e-05
-2.64566e-05 1.4683e-05 1.80372e-05
-2.67761e-05 -9.01494e-06 1.75814e-05
-2.58141e-05 -5.03767e-06 1.69305e-05
-2.52626e-05 -1.63696e-06 1.65761e-05
-2.52656e-05 1.60859e-06 1.65791e-05
-2.58064e-05 5.02504e-06 1.69287e-05
-2.67624e-05 8.988e-06 1.7568e-05
-2.64435e-05 -1.47294e-05 1.80659e-05
-5.54184e-06 -2.76443e-05 1.75337e-05
-8.4787e-06 -2.48498e-05 1.69052e-05
-1.11735e-05 -2.26917e-05 1.65609e-05
-1.39753e-05 -2.10939e-05 1.65643e-05
-1.72208e-05 -1.98749e-05 1.69412e-05
-2.11408e-05 -1.87539e-05 1.75663e-05
8.97951e-08 -3.01469e-05 1.8033e-05
2.11307e-05 -1.86296e-05 1.75155e-05
1.72505e-05 -1.9768e-05 1.68774e-05
1.40386e-05 -2.10179e-05 1.65163e-05
1.12285e-05 -2.26004e-05 1.65509e-05
8.58329e-06 -2.47881e-05 1.68787e-05
5.65541e-06 -2.76346e-05 1.75391e-05
2.61313e-05 -1.50636e-05 1.80321e-05
2.67242e-05 8.94185e-06 1.75056e-05
2.573e-05 5.05179e-06 1.69129e-05
2.52147e-05 1.62408e-06 1.65279e-05
2.52119e-05 -1.60017e-06 1.65262e-05
2.57586e-05 -4.99957e-06 1.68929e-05
2.67063e-05 -8.92058e-06 1.75138e-05
2.61144e-05 1.50647e-05 1.80291e-05
5.63385e-06 2.76259e-05 1.75136e-05
8.51067e-06 2.48147e-05 1.69157e-05
1.12205e-05 2.26485e-05 1.65341e-05
1.40092e-05 2.10289e-05 1.65295e-05
1.72275e-05 1.97992e-05 1.68896e-05
2.11217e-05 1.86392e-05 1.75295e-05
0 0 0
0 0 0
0 0 0
0 0 0
0 0 0
0 0 0
2.48606e-08 3.01622e-05 -1.80379e-05
-2.11473e-05 1.87171e-05 -1.75538e-05
-1.72384e-05 1.98396e-05 -1.69253e-05
-1.40117e-05 2.10609e-05 -1.65597e-05
-1.12103e-05 2.26723e-05 -1.65536e-05
-8.52617e-06 2.48408e-05 -1.69059e-05
-5.56859e-06 2.76299e-05 -1.75415e-05
-2.64566e-05 1.4683e-05 -1.80372e-05
-2.67761e-05 -9.01494e-06 -1.75814e-05
-2.58141e-05 -5.03767e-06 -1.69305e-05
-2.52626e-05 -1.63696e-06 -1.65761e-05
-2.52656e-05 1.60859e-06 -1.65791e-05
-2.58064e-05 5.02504e-06 -1.69287e-05
-2.67624e-05 8.988e-06 -1.7568e-05
-2.64435e-05 -1.47294e-05 -1.80659e-05
-5.54184e-06 -2.76443e-05 -1.75337e-05
-8.4787e-06 -2.48498e-05 -1.69052e-05
-1.11735e-05 -2.26917e-05 -1.65609e-05
-1.39753e-05 -2.10939e-05 -1.65643e-05
-1.72208e-05 -1.98749e-05 -1.69412e-05
-2.11408e-05 -1.87539e-05 -1.75663e-05
8.97951e-08 -3.01469e-05 -1.8033e-05
2.11307e-05 -1.86296e-05 -1.75155e-05
1.72505e-05 -1.9768e-05 -1.68774e-05
1.40386e-05 -2.10179e-05 -1.65163e-05
1.12285e-05 -2.26004e-05 -1.65509e-05
8.58329e-06 -2.47881e-05 -1.68787e-05
5.65541e-06 -2.76346e-05 -1.75391e-05
2.61313e-05 -1.50636e-05 -1.80321e-05
2.67242e-05 8.94185e-06 -1.75056e-05
2.573e-05 5.05179e-06 -1.69129e-05
2.52147e-05 1.62408e-06 -1.65279e-05
2.52119e-05 -1.60017e-06 -1.65262e-05
2.57586e-05 -4.99957e-06 -1.68929e-05
2.67063e-05 -8.92058e-06 -1.75138e-05
2.61144e-05 1.50647e-05 -1.80291e-05
5.63385e-06 2.76259e-05 -1.75136e-05
8.51067e-06 2.48147e-05 -1.69157e-05
1.12205e-05 2.26485e-05 -1.65341e-05
1.40092e-05 2.10289e-05 -1.65295e-05
1.72275e-05 1.97992e-05 -1.68896e-05
2.11217e-05 1.86392e-05 -1.75295e-05
0 0 0
0 0 0
0 0 0
0 0 0
0 0 0
0 0 0
1.79411e-06 8.58952e-07 4.55371e-06
1.73823e-06 -8.25312e-07 4.46223e-06
4.32057e-07 1.85007e-06 4.49655e-06
4.36202e-07 -1.78105e-06 4.35747e-06
-1.84793e-06 2.09697e-08 4.42377e-06
-1.12335e-06 -1.30918e-06 4.15232e-06
-1.15948e-06 1.30711e-06 4.20111e-06
-2.25199e-05 -7.29021e-06 1.70043e-05
-2.22031e-05 7.3741e-06 1.6973e-05
-4.86168e-06 2.29056e-05 1.69414e-05
-4.85917e-06 -2.31388e-05 1.69683e-05
1.74268e-05 1.56401e-05 1.69342e-05
1.75744e-05 -1.5541e-05 1.69435e-05
2.10803e-05 3.16505e-06 1.63291e-05
-1.39578e-05 1.71566e-05 1.6483e-05
-1.35957e-05 -1.67465e-05 1.64146e-05
7.77022e-06 1.9826e-05 1.63359e-05
7.68716e-06 -2.03166e-05 1.64072e-05
2.14792e-05 -3.44502e-06 1.64048e-05
-2.11096e-05 6.58834e-09 1.62514e-05
-2.24269e-05 1.10031e-05 1.74576e-05
-1.87567e-05 9.25761e-06 1.66314e-05
-1.79885e-05 5.79736e-06 1.60408e-05
-1.49887e-05 7.45072e-06 1.54909e-05
-1.4229e-05 4.30912e-06 1.48342e-05
-1.15363e-05 5.74573e-06 1.40991e-05
-1.08615e-05 3.06971e-06 1.33778e-05
-8.40313e-06 4.30622e-06 1.24083e-05
-9.06171e-06 7.01564e-06 1.34606e-05
-6.20603e-06 5.49021e-06 1.16927e-05
-6.83049e-06 8.25207e-06 1.30841e-05
-4.28273e-06 6.67697e-06 1.14542e-05
-4.80156e-06 9.613e-06 1.30981e-05
-2.40163e-06 7.99583e-06 1.17267e-05
-2.81377e-06 1.11708e-05 1.34792e-05
-4.75569e-07 9.59832e-06 1.2505e-05
-7.38603e-07 1.30011e-05 1.41461e-05
1.73163e-06 1.15215e-05 1.35392e-05
-5.5365e-06 1.27045e-05 1.44414e-05
1.6856e-06 8.22654e-06 1.17513e-05
4.00546e-06 1.01241e-05 1.31551e-05
3.70649e-06 7.10015e-06 1.14819e-05
6.06934e-06 8.96955e-06 1.31175e-05
5.76861e-06 6.1087e-06 1.17393e-05
8.36076e-06 8.02291e-06 1.34963e-05
8.10821e-06 5.19691e-06 1.25043e-05
1.09575e-05 7.09934e-06 1.41513e-05
1.07494e-05 4.32419e-06 1.35033e-05
8.5333e-06 1.10411e-05 1.44652e-05
7.94016e-06 2.64457e-06 1.17312e-05
1.06494e-05 1.73776e-06 1.31082e-05
7.95115e-06 3.58872e-07 1.14593e-05
1.08099e-05 -7.59356e-07 1.31283e-05
8.11417e-06 -1.93841e-06 1.17129e-05
1.11018e-05 -3.31392e-06 1.34882e-05
8.47241e-06 -4.42538e-06 1.2448e-05
1.15074e-05 -6.00482e-06 1.41138e-05
8.95844e-06 -7.14041e-06 1.34323e-05
6.14943e-06 -5.49613e-06 1.1645e-05
6.64662e-06 -8.30353e-06 1.30224e-05
4.10647e-06 -6.59055e-06 1.13146e-05
4.5248e-06 -9.55393e-06 1.29925e-05
2.24299e-06 -7.86073e-06 1.16011e-05
2.48562e-06 -1.10054e-05 1.33552e-05
2.25354e-07 -9.37665e-06 1.23576e-05
3.30107e-07 -1.27739e-05 1.40382e-05
-1.91606e-06 -1.11543e-05 1.33813e-05
-1.84165e-06 -7.92408e-06 1.15859e-05
-4.16925e-06 -9.87802e-06 1.30892e-05
-3.81513e-06 -6.73258e-06 1.13208e-05
-6.34767e-06 -8.6648e-06 1.31035e-05
-5.89314e-06 -5.69978e-06 1.16322e-05
-8.50246e-06 -7.43818e-06 1.33839e-05
-8.17013e-06 -4.72955e-06 1.24126e-05
-1.10992e-05 -6.40483e-06 1.40743e-05
-4.37309e-06 -1.31275e-05 1.44381e-05
-1.08123e-05 -3.65185e-06 1.34435e-05
7.22848e-06 -1.13765e-05 1.42775e-05
-7.74411e-06 1.9833e-06 1.14966e-05
-1.32204e-05 1.03539e-06 1.42154e-05
1.72966e-06 1.50877e-05 1.49567e-05
1.37726e-05 4.62394e-07 1.43923e-05
1.38477e-05 6.1021e-06 1.49362e-05
-9.69723e-06 1.01996e-05 1.4537e-05
-5.41764e-06 -3.19861e-06 1.01855e-05
-1.17174e-05 -9.30034e-06 1.48937e-05
1.18862e-05 -8.76306e-06 1.47917e-05
1.47865e-05 -7.47603e-06 1.54079e-05
-1.39643e-05 -5.2456e-06 1.48662e-05
2.79671e-06 -1.45209e-05 1.48008e-05
4.24675e-07 -1.65047e-05 1.54023e-05
3.51947e-06 4.39824e-06 9.58429e-06
1.40151e-05 9.30206e-06 1.54962e-05
1.79365e-05 8.14761e-06 1.63051e-05
-1.56805e-05 1.13989e-05 1.6238e-05
-1.09444e-06 1.67745e-05 1.54999e-05
1.90739e-06 1.96279e-05 1.63155e-05
-2.0925e-06 5.22162e-06 9.60078e-06
5.55559e-06 -7.84836e-07 9.59734e-06
3.587e-06 -3.68464e-06 9.08499e-06
-1.78017e-06 -5.1801e-06 9.45274e-06
-2.24753e-05 -1.10142e-05 1.74784e-05
-1.8804e-05 -9.24435e-06 1.66554e-05
2.11542e-05 1.41688e-05 1.75096e-05
2.076e-05 -1.43217e-05 1.74396e-05
-1.76494e-06 -2.5454e-05 1.7515e-05
-1.68245e-06 2.5418e-05 1.75196e-05
1.77186e-05 -1.19106e-05 1.66916e-05
2.0652e-05 -1.07544e-05 1.71202e-05
3.77675e-06 -1.89913e-05 1.6144e-05
7.68713e-07 -2.03522e-05 1.64873e-05
-1.9411e-05 -1.26543e-05 1.71474e-05
-1.37356e-05 -2.30768e-06 1.44764e-05
-1.65981e-05 -3.70267e-06 1.54822e-05
-1.03792e-05 -1.09674e-06 1.29563e-05
2.4459e-05 1.10763e-05 1.76556e-05
2.55045e-05 -1.2407e-05 1.7852e-05
2.64961e-06 2.67337e-05 1.76645e-05
2.52135e-06 -2.64213e-05 1.76333e-05
3.34024e-06 -2.3039e-05 1.70334e-05
-2.05454e-06 -1.83258e-05 1.59554e-05
4.05997e-06 2.37987e-05 1.71347e-05
2.26209e-05 8.38212e-06 1.71235e-05
4.61503e-06 1.7319e-05 1.57319e-05
1.44317e-05 -1.31236e-05 1.6142e-05
-1.57927e-05 -1.09882e-05 1.6219e-05
-1.68053e-05 -3.81562e-07 1.5382e-05
1.73115e-05 4.68906e-06 1.57303e-05
6.55365e-08 -6.38923e-06 1.02708e-05
1.74221e-06 -4.84987e-06 9.0955e-06
5.85222e-06 -2.9364e-06 1.03816e-05
-2.1451e-05 3.75188e-06 1.64635e-05
5.73118e-06 -1.62798e-05 1.55124e-05
9.0864e-06 -1.75048e-05 1.60023e-05
1.75777e-05 1.18853e-05 1.66767e-05
1.39989e-05 -1.63874e-05 1.64059e-05
1.07435e-05 -1.37935e-05 1.55548e-05
-3.54901e-06 -4.22143e-06 9.5039e-06
5.4007e-06 1.13883e-06 9.5022e-06
5.2196e-06 3.22384e-06 1.00506e-05
-1.74998e-06 -2.83623e-05 1.78806e-05
1.89261e-06 5.30045e-06 9.58762e-06
-1.13862e-07 6.10682e-06 1.00421e-05
-3.78603e-06 4.12895e-06 9.58157e-06
-5.62436e-06 3.03509e-06 1.02886e-05
-5.16697e-06 1.04098e-06 9.21664e-06
-7.52955e-06 -6.17589e-08 1.11761e-05
-4.33559e-06 -8.10503e-07 8.3846e-06
-3.10943e-06 1.87284e-06 7.37646e-06
-2.20882e-05 -3.60911e-06 1.65204e-05
2.34128e-05 -1.5692e-05 1.78399e-05
-1.50762e-06 2.11745e-05 1.66864e-05
2.12686e-05 -8.45513e-08 1.62305e-05
1.76278e-05 -1.64736e-06 1.55862e-05
1.73533e-05 -4.94332e-06 1.57753e-05
2.18982e-05 -7.45365e-06 1.6918e-05
-2.31887e-05 -1.42584e-05 1.78365e-05
1.73303e-05 1.64944e-06 1.55133e-05
-1.73418e-06 2.84808e-05 1.78979e-05
-4.22188e-07 3.68442e-06 7.49775e-06
2.37786e-05 1.57464e-05 1.78883e-05
-1.75029e-05 1.56468e-05 1.69793e-05
-1.06297e-05 -1.84721e-05 1.62598e-05
-1.01029e-05 -1.4347e-05 1.55764e-05
-7.51022e-06 -1.61001e-05 1.56268e-05
-7.32437e-06 -2.0127e-05 1.63999e-05
-1.0708e-05 1.85413e-05 1.62715e-05
-1.03507e-05 1.43888e-05 1.56241e-05
-7.775e-06 2.0499e-05 1.64489e-05
-4.25429e-06 1.86156e-05 1.60576e-05
1.07632e-05 1.83514e-05 1.62309e-05
1.38963e-05 1.69402e-05 1.64357e-05
1.40465e-05 1.2977e-05 1.60559e-05
-7.36397e-06 1.62936e-05 1.56432e-05
1.05286e-05 1.45518e-05 1.56499e-05
7.75125e-06 1.60976e-05 1.56187e-05
-3.11732e-06 -1.89928e-06 7.3956e-06
-7.26003e-06 -1.2426e-05 1.46298e-05
3.00945e-06 4.03712e-08 6.60313e-06
4.87415e-06 1.35272e-05 1.46227e-05
1.40806e-05 -2.26113e-06 1.45751e-05
-1.72953e-05 -1.52212e-05 1.69498e-05
-1.73721e-05 2.42112e-06 1.56025e-05
-1.22086e-05 8.91479e-06 1.4948e-05
-7.70801e-06 -2.29322e-06 1.15585e-05
-1.24538e-05 1.18164e-05 1.55446e-05
-1.42777e-07 -3.75525e-06 7.55666e-06
2.73097e-06 2.2727e-06 7.25431e-06
-2.00452e-06 -1.46552e-05 1.48126e-05
9.36814e-06 -1.00715e-05 1.4394e-05
1.38653e-05 3.15886e-06 1.45707e-05
-7.34245e-06 1.1203e-05 1.42648e-05
4.99884e-06 -1.2779e-05 1.43739e-05
1.10355e-05 1.04339e-05 1.49243e-05
-3.59762e-06 1.469e-05 1.49126e-05
-4.63696e-06 -1.66223e-05 1.55535e-05
-1.95131e-05 1.28962e-05 1.71655e-05
-2.31335e-05 1.48622e-05 1.78473e-05
-1.29092e-05 -1.26901e-05 1.58172e-05
3.76185e-06 -1.58657e-06 7.90956e-06
1.76487e-06 2.92308e-06 7.08676e-06
-9.23351e-06 -1.06129e-05 1.45364e-05
1.72821e-06 -2.82392e-06 6.93334e-06
9.94913e-07 2.41241e-05 1.73126e-05
2.13744e-05 1.11973e-05 1.73028e-05
-1.46693e-05 -7.95594e-06 1.54899e-05
1.37125e-05 -4.78789e-06 1.46952e-05
-1.91041e-06 -2.17697e-05 1.68071e-05
1.80661e-05 -8.42179e-06 1.63452e-05
-1.66843e-05 -6.33064e-06 1.5787e-05
-4.33011e-07 -1.9228e-06 4.80002e-06
-1.80587e-06 2.99626e-06 7.17954e-06
-2.50588e-05 -1.29856e-05 1.79261e-05
-2.51339e-05 -1.45112e-05 1.80058e-05
-2.5052e-05 1.30375e-05 1.79098e-05
-2.51248e-05 1.46539e-05 1.79859e-05
-1.64891e-06 -3.1257e-06 7.21228e-06
6.33002e-06 1.13721e-05 1.40811e-05
5.33794e-07 -2.40934e-05 1.73064e-05
-5.22911e-07 1.81e-06 4.64651e-06
7.40989e-06 -1.43484e-05 1.51571e-05
2.33095e-05 -1.32132e-05 1.77327e-05
2.36395e-05 -1.0541e-05 1.74949e-05
1.19924e-05 -1.82169e-05 1.62981e-05
1.47349e-05 -1.01499e-05 1.58002e-05
-1.00303e-05 1.00157e-06 1.27589e-05
-1.74045e-06 -8.16106e-07 4.72498e-06
7.69275e-07 3.70938e-06 7.57565e-06
2.3437e-06 -1.99769e-06 6.55744e-06
2.01629e-05 5.89987e-06 1.64582e-05
5.07153e-06 2.06026e-05 1.65006e-05
3.42131e-07 -2.76878e-05 1.78579e-05
-1.73166e-06 7.09288e-07 4.60781e-06
-3.21238e-06 6.23214e-07 6.82638e-06
3.57821e-06 1.47582e-06 7.63915e-06
4.99253e-07 2.83316e-05 1.79311e-05
2.47671e-05 1.3738e-05 1.79222e-05
-2.03346e-05 1.55401e-05 1.74332e-05
1.179e-06 1.36481e-06 4.4613e-06
-2.0646e-05 -1.57327e-05 1.75317e-05
-1.90051e-05 -2.32301e-06 1.59509e-05
-1.95654e-05 -5.5869e-06 1.63369e-05
9.05926e-07 -3.24864e-06 7.00841e-06
-4.36733e-06 -1.97957e-05 1.63265e-05
-7.93993e-06 1.3839e-05 1.51058e-05
1.16604e-06 -1.30451e-06 4.3407e-06
1.19384e-05 -1.1232e-05 1.52969e-05
6.13465e-06 -2.27034e-05 1.6825e-05
-1.45269e-05 1.43599e-05 1.63283e-05
7.9317e-06 1.33257e-05 1.49527e-05
1.79411e-06 8.58952e-07 -4.55371e-06
1.73823e-06 -8.25312e-07 -4.46223e-06
4.32057e-07 1.85007e-06 -4.49655e-06
4.36202e-07 -1.78105e-06 -4.35747e-06
-1.84793e-06 2.09697e-08 -4.42377e-06
-1.12335e-06 -1.30918e-06 -4.15232e-06
-1.15948e-06 1.30711e-06 -4.20111e-06
-2.25199e-05 -7.29021e-06 -1.70043e-05
-2.22031e-05 7.3741e-06 -1.6973e-05
-4.86168e-06 2.29056e-05 -1.69414e-05
-4.85917e-06 -2.31388e-05 -1.69683e-05
1.74268e-05 1.56401e-05 -1.69342e-05
1.75744e-05 -1.5541e-05 -1.69435e-05
2.10803e-05 3.16505e-06 -1.63291e-05
-1.39578e-05 1.71566e-05 -1.6483e-05
-1.35957e-05 -1.67465e-05 -1.64146e-05
7.77022e-06 1.9826e-05 -1.63359e-05
7.68716e-06 -2.03166e-05 -1.64072e-05
2.14792e-05 -3.44502e-06 -1.64048e-05
-2.11096e-05 6.58834e-09 -1.62514e-05
-2.24269e-05 1.10031e-05 -1.74576e-05
-1.87567e-05 9.25761e-06 -1.66314e-05
-1.79885e-05 5.79736e-06 -1.60408e-05
-1.49887e-05 7.45072e-06 -1.54909e-05
-1.4229e-05 4.30912e-06 -1.48342e-05
-1.15363e-05 5.74573e-06 -1.40991e-05
-1.08615e-05 3.06971e-06 -1.33778e-05
-8.40313e-06 4.30622e-06 -1.24083e-05
-9.06171e-06 7.01564e-06 -1.34606e-05
-6.20603e-06 5.49021e-06 -1.16927e-05
-6.83049e-06 8.25207e-06 -1.30841e-05
-4.28273e-06 6.67697e-06 -1.14542e-05
-4.80156e-06 9.613e-06 -1.30981e-05
-2.40163e-06 7.99583e-06 -1.17267e-05
-2.81377e-06 1.11708e-05 -1.34792e-05
-4.75569e-07 9.59832e-06 -1.2505e-05
-7.38603e-07 1.30011e-05 -1.41461e-05
1.73163e-06 1.15215e-05 -1.35392e-05
-5.5365e-06 1.27045e-05 -1.44414e-05
1.6856e-06 8.22654e-06 -1.17513e-05
4.00546e-06 1.01241e-05 -1.31551e-05
3.70649e-06 7.10015e-06 -1.14819e-05
6.06934e-06 8.96955e-06 -1.31175e-05
5.76861e-06 6.1087e-06 -1.17393e-05
8.36076e-06 8.02291e-06 -1.34963e-05
8.10821e-06 5.19691e-06 -1.25043e-05
1.09575e-05 7.09934e-06 -1.41513e-05
1.07494e-05 4.32419e-06 -1.35033e-05
8.5333e-06 1.10411e-05 -1.44652e-05
7.94016e-06 2.64457e-06 -1.17312e-05
1.06494e-05 1.73776e-06 -1.31082e-05
7.95115e-06 3.58872e-07 -1.14593e-05
1.08099e-05 -7.59356e-07 -1.31283e-05
8.11417e-06 -1.93841e-06 -1.17129e-05
1.11018e-05 -3.31392e-06 -1.34882e-05
8.47241e-06 -4.42538e-06 -1.2448e-05
1.15074e-05 -6.00482e-06 -1.41138e-05
8.95844e-06 -7.14041e-06 -1.34323e-05
6.14943e-06 -5.49613e-06 -1.1645e-05
6.64662e-06 -8.30353e-06 -1.30224e-05
4.10647e-06 -6.59055e-06 -1.13146e-05
4.5248e-06 -9.55393e-06 -1.29925e-05
2.24299e-06 -7.86073e-06 -1.16011e-05
2.48562e-06 -1.10054e-05 -1.33552e-05
2.25354e-07 -9.37665e-06 -1.23576e-05
3.30107e-07 -1.27739e-05 -1.40382e-05
-1.91606e-06 -1.11543e-05 -1.33813e-05
-1.84165e-06 -7.92408e-06 -1.15859e-05
-4.16925e-06 -9.87802e-06 -1.30892e-05
-3.81513e-06 -6.73258e-06 -1.13208e-05
-6.34767e-06 -8.6648e-06 -1.31035e-05
-5.89314e-06 -5.69978e-06 -1.16322e-05
-8.50246e-06 -7.43818e-06 -1.33839e-05
-8.17013e-06 -4.72955e-06 -1.24126e-05
-1.10992e-05 -6.40483e-06 -1.40743e-05
-4.37309e-06 -1.31275e-05 -1.44381e-05
-1.08123e-05 -3.65185e-06 -1.34435e-05
7.22848e-06 -1.13765e-05 -1.42775e-05
-7.74411e-06 1.9833e-06 -1.14966e-05
-1.32204e-05 1.03539e-06 -1.42154e-05
1.72966e-06 1.50877e-05 -1.49567e-05
1.37726e-05 4.62394e-07 -1.43923e-05
1.38477e-05 6.1021e-06 -1.49362e-05
-9.69723e-06 1.01996e-05 -1.4537e-05
-5.41764e-06 -3.19861e-06 -1.01855e-05
-1.17174e-05 -9.30034e-06 -1.48937e-05
1.18862e-05 -8.76306e-06 -1.47917e-05
1.47865e-05 -7.47603e-06 -1.54079e-05
-1.39643e-05 -5.2456e-06 -1.48662e-05
2.79671e-06 -1.45209e-05 -1.48008e-05
4.24675e-07 -1.65047e-05 -1.54023e-05
3.51947e-06 4.39824e-06 -9.58429e-06
1.40151e-05 9.30206e-06 -1.54962e-05
1.79365e-05 8.14761e-06 -1.63051e-05
-1.56805e-05 1.13989e-05 -1.6238e-05
-1.09444e-06 1.67745e-05 -1.54999e-05
1.90739e-06 1.96279e-05 -1.63155e-05
-2.0925e-06 5.22162e-06 -9.60078e-06
5.55559e-06 -7.84836e-07 -9.59734e-06
3.587e-06 -3.68464e-06 -9.08499e-06
-1.78017e-06 -5.1801e-06 -9.45274e-06
-2.24753e-05 -1.10142e-05 -1.74784e-05
-1.8804e-05 -9.24435e-06 -1.66554e-05
2.11542e-05 1.41688e-05 -1.75096e-05
2.076e-05 -1.43217e-05 -1.74396e-05
-1.76494e-06 -2.5454e-05 -1.7515e-05
-1.68245e-06 2.5418e-05 -1.75196e-05
1.77186e-05 -1.19106e-05 -1.66916e-05
2.0652e-05 -1.07544e-05 -1.71202e-05
3.77675e-06 -1.89913e-05 -1.6144e-05
7.68713e-07 -2.03522e-05 -1.64873e-05
-1.9411e-05 -1.26543e-05 -1.71474e-05
-1.37356e-05 -2.30768e-06 -1.44764e-05
-1.65981e-05 -3.70267e-06 -1.54822e-05
-1.03792e-05 -1.09674e-06 -1.29563e-05
2.4459e-05 1.10763e-05 -1.76556e-05
2.55045e-05 -1.2407e-05 -1.7852e-05
2.64961e-06 2.67337e-05 -1.76645e-05
2.52135e-06 -2.64213e-05 -1.76333e-05
3.34024e-06 -2.3039e-05 -1.70334e-05
-2.05454e-06 -1.83258e-05 -1.59554e-05
4.05997e-06 2.37987e-05 -1.71347e-05
2.26209e-05 8.38212e-06 -1.71235e-05
4.61503e-06 1.7319e-05 -1.57319e-05
1.44317e-05 -1.31236e-05 -1.6142e-05
-1.57927e-05 -1.09882e-05 -1.6219e-05
-1.68053e-05 -3.81562e-07 -1.5382e-05
1.73115e-05 4.68906e-06 -1.57303e-05
6.55365e-08 -6.38923e-06 -1.02708e-05
1.74221e-06 -4.84987e-06 -9.0955e-06
5.85222e-06 -2.9364e-06 -1.03816e-05
-2.1451e-05 3.75188e-06 -1.64635e-05
5.73118e-06 -1.62798e-05 -1.55124e-05
9.0864e-06 -1.75048e-05 -1.60023e-05
1.75777e-05 1.18853e-05 -1.66767e-05
1.39989e-05 -1.63874e-05 -1.64059e-05
1.07435e-05 -1.37935e-05 -1.55548e-05
-3.54901e-06 -4.22143e-06 -9.5039e-06
5.4007e-06 1.13883e-06 -9.5022e-06
5.2196e-06 3.22384e-06 -1.00506e-05
-1.74998e-06 -2.83623e-05 -1.78806e-05
1.89261e-06 5.30045e-06 -9.58762e-06
-1.13862e-07 6.10682e-06 -1.00421e-05
-3.78603e-06 4.12895e-06 -9.58157e-06
-5.62436e-06 3.03509e-06 -1.02886e-05
-5.16697e-06 1.04098e-06 -9.21664e-06
-7.52955e-06 -6.17589e-08 -1.11761e-05
-4.33559e-06 -8.10503e-07 -8.3846e-06
-3.10943e-06 1.87284e-06 -7.37646e-06
-2.20882e-05 -3.60911e-06 -1.65204e-05
2.34128e-05 -1.5692e-05 -1.78399e-05
-1.50762e-06 2.11745e-05 -1.66864e-05
2.12686e-05 -8.45513e-08 -1.62305e-05
1.76278e-05 -1.64736e-06 -1.55862e-05
1.73533e-05 -4.94332e-06 -1.57753e-05
2.18982e-05 -7.45365e-06 -1.6918e-05
-2.31887e-05 -1.42584e-05 -1.78365e-05
1.73303e-05 1.64944e-06 -1.55133e-05
-1.73418e-06 2.84808e-05 -1.78979e-05