# vtk DataFile Version 3.0
vtk output at time 270
ASCII
DATASET UNSTRUCTURED_GRID
POINTS 626 float
-3.68058e-05 0.000978749 0 3.68058e-05 0.000978749 0 -0.000829194 0.00052125 0 
-0.0008235 0.0005 0 -0.000866 0.0004575 0 -0.000866 -0.0004575 0 
-0.0008235 -0.0005 0 -0.000829194 -0.00052125 0 -3.68058e-05 -0.000978749 0 
3.68058e-05 -0.000978749 0 0.000829194 -0.00052125 0 0.000866 -0.0004575 0 
0.000866 0.0004575 0 0.000829194 0.00052125 0 8.5e-05 0 0 
-3.68058e-05 0.000978749 -0.001 3.68058e-05 0.000978749 -0.001 -0.000829194 0.00052125 -0.001 
-0.0008235 0.0005 -0.001 -0.000866 0.0004575 -0.001 -0.000866 -0.0004575 -0.001 
-0.0008235 -0.0005 -0.001 -0.000829194 -0.00052125 -0.001 -3.68058e-05 -0.000978749 -0.001 
3.68058e-05 -0.000978749 -0.001 0.000829194 -0.00052125 -0.001 0.000866 -0.0004575 -0.001 
0.000866 0.0004575 -0.001 0.000829194 0.00052125 -0.001 8.5e-05 0 -0.001 
8.46223e-17 0.0009575 0 -0.000715996 0.000586607 0 -0.000602797 0.000651965 0 
-0.000489599 0.000717321 0 -0.000376401 0.000782678 0 -0.000263202 0.000848036 0 
-0.000150004 0.000913393 0 -0.000835948 0.000469948 0 -0.000866 -0.000326786 0 
-0.000866 -0.000196071 0 -0.000866 -6.53571e-05 0 -0.000866 6.53571e-05 0 
-0.000866 0.000196071 0 -0.000866 0.000326786 0 -0.000835948 -0.000469948 0 
-0.000150004 -0.000913393 0 -0.000263202 -0.000848036 0 -0.000376401 -0.000782678 0 
-0.000489599 -0.000717321 0 -0.000602797 -0.000651965 0 -0.000715996 -0.000586607 0 
8.47648e-17 -0.0009575 0 0.000715996 -0.000586607 0 0.000602797 -0.000651965 0 
0.000489599 -0.000717321 0 0.000376401 -0.000782678 0 0.000263202 -0.000848036 0 
0.000150004 -0.000913393 0 0.000829194 -0.00047875 0 0.000866 0.000326786 0 
0.000866 0.000196071 0 0.000866 6.53571e-05 0 0.000866 -6.53571e-05 0 
0.000866 -0.000196071 0 0.000866 -0.000326786 0 0.000829194 0.00047875 0 
0.000150004 0.000913393 0 0.000263202 0.000848036 0 0.000376401 0.000782678 0 
0.000489599 0.000717321 0 0.000602797 0.000651965 0 0.000715996 0.000586607 0 
5.29966e-05 6.64557e-05 0 -1.89143e-05 8.28689e-05 0 -7.65824e-05 3.68801e-05 0 
-7.65824e-05 -3.68801e-05 0 -1.89143e-05 -8.28689e-05 0 5.29966e-05 -6.64557e-05 0 
8.46223e-17 0.0009575 -0.001 -0.000715996 0.000586607 -0.001 -0.000602797 0.000651965 -0.001 
-0.000489599 0.000717321 -0.001 -0.000376401 0.000782678 -0.001 -0.000263202 0.000848036 -0.001 
-0.000150004 0.000913393 -0.001 -0.000835948 0.000469948 -0.001 -0.000866 -0.000326786 -0.001 
-0.000866 -0.000196071 -0.001 -0.000866 -6.53571e-05 -0.001 -0.000866 6.53571e-05 -0.001 
-0.000866 0.000196071 -0.001 -0.000866 0.000326786 -0.001 -0.000835948 -0.000469948 -0.001 
-0.000150004 -0.000913393 -0.001 -0.000263202 -0.000848036 -0.001 -0.000376401 -0.000782678 -0.001 
-0.000489599 -0.000717321 -0.001 -0.000602797 -0.000651965 -0.001 -0.000715996 -0.000586607 -0.001 
8.47648e-17 -0.0009575 -0.001 0.000715996 -0.000586607 -0.001 0.000602797 -0.000651965 -0.001 
0.000489599 -0.000717321 -0.001 0.000376401 -0.000782678 -0.001 0.000263202 -0.000848036 -0.001 
0.000150004 -0.000913393 -0.001 0.000829194 -0.00047875 -0.001 0.000866 0.000326786 -0.001 
0.000866 0.000196071 -0.001 0.000866 6.53571e-05 -0.001 0.000866 -6.53571e-05 -0.001 
0.000866 -0.000196071 -0.001 0.000866 -0.000326786 -0.001 0.000829194 0.00047875 -0.001 
0.000150004 0.000913393 -0.001 0.000263202 0.000848036 -0.001 0.000376401 0.000782678 -0.001 
0.000489599 0.000717321 -0.001 0.000602797 0.000651965 -0.001 0.000715996 0.000586607 -0.001 
5.29966e-05 6.64557e-05 -0.001 -1.89143e-05 8.28689e-05 -0.001 -7.65824e-05 3.68801e-05 -0.001 
-7.65824e-05 -3.68801e-05 -0.001 -1.89143e-05 -8.28689e-05 -0.001 5.29966e-05 -6.64557e-05 -0.001 
0.000131234 6.38474e-05 0 0.00012964 -6.2443e-05 0 3.13827e-05 0.0001394 0 
3.12554e-05 -0.000136939 0 -0.000140461 8.25467e-19 0 -8.90565e-05 -0.000102707 0 
-9.04142e-05 0.000102872 0 -0.000765769 -0.00025965 0 -0.000756873 0.000262774 0 
-0.00015609 0.000787505 0 -0.000155807 -0.00079355 0 0.000605069 0.000528035 0 
0.000608694 -0.00052497 0 0.000744069 0.000116929 0 -0.000494418 0.000596218 0 
-0.000483866 -0.000584648 0 0.000269496 0.000702219 0 0.000263201 -0.000717324 0 
0.000754429 -0.000127825 0 -0.000748858 5.84659e-07 0 -0.000747838 0.000373886 0 
-0.0006542 0.000324842 0 -0.000645137 0.000210123 0 -0.000550884 0.000274171 0 
-0.000538857 0.000163195 0 -0.00045062 0.000224461 0 -0.000438393 0.000123907 0 
-0.000354088 0.000181668 0 -0.000363908 0.000282171 0 -0.000270361 0.000239477 0 
-0.000279138 0.000337653 0 -0.000188888 0.000294791 0 -0.000196448 0.000393271 0 
-0.000104767 0.000348259 0 -0.000113332 0.000449012 0 -2.01066e-05 0.000403223 0 
-2.89189e-05 0.000507105 0 6.9524e-05 0.000461596 0 -0.000213644 0.000490203 0 
7.33757e-05 0.000357726 0 0.000163331 0.00041299 0 0.000163359 0.000313022 0 
0.000248077 0.000366368 0 0.000250914 0.000265758 0 0.000335709 0.000322266 0 
0.000340555 0.000218148 0 0.000427299 0.000276717 0 0.000431508 0.000173093 0 
0.000328731 0.000425633 0 0.00034586 0.000114823 0 0.000435362 7.05241e-05 0 
0.000350892 1.5455e-05 0 0.000441547 -3.11896e-05 0 0.000353547 -8.47783e-05 0 
0.000445767 -0.000132964 0 0.000356135 -0.000186358 0 0.000449094 -0.000234674 0 
0.000359978 -0.000287876 0 0.00026856 -0.000240545 0 0.000271895 -0.000341045 0 
0.000181792 -0.00029305 0 0.00018533 -0.000392851 0 9.75701e-05 -0.00034483 0 
9.98764e-05 -0.000444884 0 8.75116e-06 -0.000396343 0 1.20916e-05 -0.000500496 0 
-7.83929e-05 -0.000449843 0 -8.1471e-05 -0.000347249 0 -0.000171566 -0.000403733 0 
-0.000169889 -0.000298891 0 -0.000259867 -0.000354132 0 -0.000257696 -0.000249137 0 
-0.00034313 -0.000299896 0 -0.000344514 -0.000199127 0 -0.000434309 -0.000250039 0 
-0.000169832 -0.000505815 0 -0.000435227 -0.000146227 0 0.000280331 -0.000442424 0 
-0.000340889 8.76793e-05 0 -0.000515252 4.06198e-05 0 6.50491e-05 0.000568253 0 
0.00053278 1.74743e-05 0 0.000522071 0.000229831 0 -0.00037162 0.000391659 0 
-0.000255272 -0.000150439 0 -0.000442893 -0.000350705 0 0.000450067 -0.000332559 0 
0.000545175 -0.000276306 0 -0.000527797 -0.000197598 0 0.000105306 -0.000551033 0 
1.45836e-05 -0.000609147 0 0.00017145 0.000214453 0 0.000515525 0.000341711 0 
0.000636086 0.000290368 0 -0.000558657 0.000404468 0 -4.01232e-05 0.000616718 0 
6.60192e-05 0.000696422 0 -0.000101806 0.0002546 0 0.000271142 -3.88908e-05 0 
0.000179455 -0.00018534 0 -8.79553e-05 -0.000254307 0 -0.000749267 -0.000373451 0 
-0.000655941 -0.000323397 0 0.000709746 0.000466718 0 0.000698426 -0.000473086 0 
-5.25801e-05 -0.00084886 0 -4.93005e-05 0.000848038 0 0.000617396 -0.000413362 0 
0.000702056 -0.000369817 0 0.000131459 -0.000679171 0 2.48171e-05 -0.000715924 0 
-0.000664217 -0.00042729 0 -0.000528828 -8.80444e-05 0 -0.000611101 -0.000136672 0 
-0.000426972 -4.45841e-05 0 0.000800669 0.000378216 0 0.000821144 -0.000415062 0 
7.2799e-05 0.00088254 0 6.81831e-05 -0.00087503 0 0.000104963 -0.000788946 0 
-7.40696e-05 -0.000660054 0 0.000126061 0.000809943 0 0.000764361 0.000295682 0 
0.000166862 0.000630623 0 0.000516462 -0.00046707 0 -0.000563585 -0.000389606 0 
-0.000622598 -1.40238e-05 0 0.000629891 0.000171529 0 2.5614e-06 -0.000299794 0 
8.6901e-05 -0.00024329 0 0.000272045 -0.000136982 0 -0.00075148 0.000138321 0 
0.000209366 -0.000599589 0 0.000324913 -0.000630055 0 0.000614044 0.00041245 0 
0.00049651 -0.000573327 0 0.000394822 -0.000507321 0 -0.000173714 -0.000206698 0 
0.000264897 5.63722e-05 0 0.000247997 0.000152811 0 -4.63327e-05 -0.000920208 0 
9.18688e-05 0.000258626 0 -5.54111e-06 0.000290558 0 -0.000184219 0.000201484 0 
-0.000263559 0.000142267 0 -0.000256427 5.13624e-05 0 -0.000336894 -2.06179e-06 0 
-0.000228499 -4.2388e-05 0 -0.00017589 0.000106626 0 -0.000769947 -0.000133367 0 
0.000767591 -0.000500293 0 -5.05874e-05 0.000737978 0 0.000754456 -3.51771e-06 0 
0.00064691 -6.15298e-05 0 0.000630483 -0.00018134 0 0.000749187 -0.000265543 0 
-0.000760805 -0.000462521 0 0.000638155 6.09315e-05 0 -4.46661e-05 0.000922995 0 
-2.37945e-05 0.000207237 0 0.000776979 0.000500181 0 -0.000605691 0.000527596 0 
-0.000377914 -0.000653727 0 -0.000372325 -0.000526022 0 -0.000275829 -0.000589621 0 
-0.000254285 -0.000710579 0 -0.000379307 0.000656222 0 -0.000379818 0.00052718 0 
-0.000266817 0.000721555 0 -0.000150544 0.000668174 0 0.000381963 0.00065079 0 
0.000493113 0.000590432 0 0.000505439 0.000463708 0 -0.000269094 0.000596608 0 
0.000385815 0.000532045 0 0.000283599 0.0005899 0 -0.000176405 -0.000108505 0 
-0.000278769 -0.000475415 0 0.000185395 2.33014e-06 0 0.000186773 0.000517571 0 
0.000540032 -8.68444e-05 0 -0.000600694 -0.000514877 0 -0.00063703 8.98033e-05 0 
-0.000459677 0.000335729 0 -0.000338836 -0.000100751 0 -0.000457327 0.000432721 0 
-8.72007e-06 -0.000210238 0 0.000156073 0.000129496 0 -7.70692e-05 -0.000555049 0 
0.00036091 -0.000389728 0 0.000531628 0.000120564 0 -0.000285451 0.000435562 0 
0.000192719 -0.000494604 0 0.00041642 0.00039368 0 -0.000135943 0.000554637 0 
-0.000170665 -0.000610079 0 -0.000666304 0.000434981 0 -0.000758736 0.000479231 0 
-0.000470189 -0.000458901 0 0.000203433 -8.59809e-05 0 0.000101846 0.000170114 0 
-0.00035513 -0.00040726 0 0.000100184 -0.000165831 0 2.96286e-05 0.00081537 0 
0.000720946 0.000381836 0 -0.000539809 -0.000292001 0 0.00052211 -0.000182426 0 
-6.41339e-05 -0.000753908 0 0.000638039 -0.000299861 0 -0.000605136 -0.000230182 0 
-3.41638e-05 -0.000145561 0 -0.000104037 0.000172396 0 -0.000808575 -0.00042774 0 
-0.000807207 -0.000465052 0 -0.00080817 0.000429771 0 -0.000806589 0.000469738 0 
-9.50634e-05 -0.000178909 0 0.000247777 0.000445058 0 1.48293e-05 -0.000814201 0 
-4.11555e-05 0.000140955 0 0.000276104 -0.000536845 0 0.000765969 -0.000436638 0 
0.000780871 -0.000362769 0 0.000424176 -0.000642018 0 0.00053413 -0.000368009 0 
-0.000416333 4.17911e-05 0 -0.000133891 -6.23822e-05 0 4.2574e-05 0.000206312 0 
[...]
POINT_DATA 626
VECTORS displacement float
-1.74395e-06 3.09544e-05 1.8055e-05
1.73566e-06 3.09734e-05 1.81001e-05
-2.59862e-05 1.69928e-05 1.8087e-05
-2.58408e-05 1.6033e-05 1.80516e-05
-2.77206e-05 1.39727e-05 1.8069e-05
-2.77135e-05 -1.4019e-05 1.80945e-05
-2.5812e-05 -1.60711e-05 1.81058e-05
-2.59824e-05 -1.70109e-05 1.8167e-05
-1.6774e-06 -3.09581e-05 1.80514e-05
1.75545e-06 -3.09596e-05 1.81018e-05
2.59436e-05 -1.69806e-05 1.80434e-05
2.77169e-05 -1.39366e-05 1.80433e-05
2.76724e-05 1.39894e-05 1.80916e-05
2.59149e-05 1.69929e-05 1.8046e-05
0 0 0
-1.74395e-06 3.09544e-05 -1.8055e-05
1.73566e-06 3.09734e-05 -1.81001e-05
-2.59862e-05 1.69928e-05 -1.8087e-05
-2.58408e-05 1.6033e-05 -1.80516e-05
-2.77206e-05 1.39727e-05 -1.8069e-05
-2.77135e-05 -1.4019e-05 -1.80945e-05
-2.5812e-05 -1.60711e-05 -1.81058e-05
-2.59824e-05 -1.70109e-05 -1.8167e-05
-1.6774e-06 -3.09581e-05 -1.80514e-05
1.75545e-06 -3.09596e-05 -1.81018e-05
2.59436e-05 -1.69806e-05 -1.80434e-05
2.77169e-05 -1.39366e-05 -1.80433e-05
2.76724e-05 1.39894e-05 -1.80916e-05
2.59149e-05 1.69929e-05 -1.8046e-05
0 0 0
2.48947e-08 3.01542e-05 1.80341e-05
-2.11405e-05 1.87123e-05 1.75497e-05
-1.72324e-05 1.98337e-05 1.69207e-05
-1.40069e-05 2.10541e-05 1.65548e-05
-1.12068e-05 2.26647e-05 1.65487e-05
-8.52405e-06 2.48327e-05 1.69013e-05
-5.56778e-06 2.76216e-05 1.75374e-05
-2.64498e-05 1.46791e-05 1.80334e-05
-2.67686e-05 -9.01148e-06 1.75773e-05
-2.58061e-05 -5.03544e-06 1.69259e-05
-2.52544e-05 -1.6362e-06 1.65713e-05
-2.52573e-05 1.60784e-06 1.65743e-05
-2.57984e-05 5.02284e-06 1.69241e-05
-2.67548e-05 8.98457e-06 1.75638e-05
-2.64367e-05 -1.47254e-05 1.80622e-05
-5.54104e-06 -2.76361e-05 1.75296e-05
-8.47657e-06 -2.48418e-05 1.69006e-05
-1.117e-05 -2.26842e-05 1.65561e-05
-1.39705e-05 -2.10871e-05 1.65595e-05
-1.72149e-05 -1.98691e-05 1.69366e-05
-2.11341e-05 -1.87491e-05 1.75621e-05
8.98404e-08 -3.0139e-05 1.80293e-05
2.11239e-05 -1.86248e-05 1.75114e-05
1.72446e-05 -1.97621e-05 1.68728e-05
1.40338e-05 -2.10111e-05 1.65115e-05
1.1225e-05 -2.25929e-05 1.6546e-05
8.58121e-06 -2.478e-05 1.68741e-05
5.65467e-06 -2.76263e-05 1.75349e-05
2.61245e-05 -1.50596e-05 1.80283e-05
2.67167e-05 8.93835e-06 1.75014e-05
2.57219e-05 5.04956e-06 1.69083e-05
2.52065e-05 1.62331e-06 1.65231e-05
2.52036e-05 -1.59942e-06 1.65214e-05
2.57506e-05 -4.99735e-06 1.68882e-05
2.66988e-05 -8.91711e-06 1.75096e-05
2.61075e-05 1.50608e-05 1.80253e-05
5.63313e-06 2.76177e-05 1.75095e-05
8.50859e-06 2.48067e-05 1.69111e-05
1.1217e-05 2.26409e-05 1.65293e-05
1.40044e-05 2.1022e-05 1.65246e-05
1.72216e-05 1.97934e-05 1.6885e-05
2.11149e-05 1.86344e-05 1.75253e-05
0 0 0
0 0 0
0 0 0
0 0 0
0 0 0
0 0 0
2.48947e-08 3.01542e-05 -1.80341e-05
-2.11405e-05 1.87123e-05 -1.75497e-05
-1.72324e-05 1.98337e-05 -1.69207e-05
-1.40069e-05 2.10541e-05 -1.65548e-05
-1.12068e-05 2.26647e-05 -1.65487e-05
-8.52405e-06 2.48327e-05 -1.69013e-05
-5.56778e-06 2.76216e-05 -1.75374e-05
-2.64498e-05 1.46791e-05 -1.80334e-05
-2.67686e-05 -9.01148e-06 -1.75773e-05
-2.58061e-05 -5.03544e-06 -1.69259e-05
-2.52544e-05 -1.6362e-06 -1.65713e-05
-2.52573e-05 1.60784e-06 -1.65743e-05
-2.57984e-05 5.02284e-06 -1.69241e-05
-2.67548e-05 8.98457e-06 -1.75638e-05
-2.64367e-05 -1.47254e-05 -1.80622e-05
-5.54104e-06 -2.76361e-05 -1.75296e-05
-8.47657e-06 -2.48418e-05 -1.69006e-05
-1.117e-05 -2.26842e-05 -1.65561e-05
-1.39705e-05 -2.10871e-05 -1.65595e-05
-1.72149e-05 -1.98691e-05 -1.69366e-05
-2.11341e-05 -1.87491e-05 -1.75621e-05
8.98404e-08 -3.0139e-05 -1.80293e-05
2.11239e-05 -1.86248e-05 -1.75114e-05
1.72446e-05 -1.97621e-05 -1.68728e-05
1.40338e-05 -2.10111e-05 -1.65115e-05
1.1225e-05 -2.25929e-05 -1.6546e-05
8.58121e-06 -2.478e-05 -1.68741e-05
5.65467e-06 -2.76263e-05 -1.75349e-05
2.61245e-05 -1.50596e-05 -1.80283e-05
2.67167e-05 8.93835e-06 -1.75014e-05
2.57219e-05 5.04956e-06 -1.69083e-05
2.52065e-05 1.62331e-06 -1.65231e-05
2.52036e-05 -1.59942e-06 -1.65214e-05
2.57506e-05 -4.99735e-06 -1.68882e-05
2.66988e-05 -8.91711e-06 -1.75096e-05
2.61075e-05 1.50608e-05 -1.80253e-05
5.63313e-06 2.76177e-05 -1.75095e-05
8.50859e-06 2.48067e-05 -1.69111e-05
1.1217e-05 2.26409e-05 -1.65293e-05
1.40044e-05 2.1022e-05 -1.65246e-05
1.72216e-05 1.97934e-05 -1.6885e-05
2.11149e-05 1.86344e-05 -1.75253e-05
0 0 0
0 0 0
0 0 0
0 0 0
0 0 0
0 0 0
1.79367e-06 8.58742e-07 4.55222e-06
1.73781e-06 -8.2511e-07 4.46077e-06
4.31952e-07 1.84962e-06 4.49509e-06
4.36096e-07 -1.78062e-06 4.35606e-06
-1.84748e-06 2.0963e-08 4.42233e-06
-1.12308e-06 -1.30887e-06 4.15097e-06
-1.1592e-06 1.30679e-06 4.19975e-06
-2.25129e-05 -7.28763e-06 1.69998e-05
-2.21963e-05 7.37152e-06 1.69685e-05
-4.86042e-06 2.28984e-05 1.69369e-05
-4.85793e-06 -2.31315e-05 1.69638e-05
1.74211e-05 1.56354e-05 1.69297e-05
1.75687e-05 -1.55364e-05 1.6939e-05
2.10734e-05 3.16386e-06 1.63243e-05
-1.3953e-05 1.71511e-05 1.64783e-05
-1.35911e-05 -1.67411e-05 1.64098e-05
7.7678e-06 1.98194e-05 1.63311e-05
7.68482e-06 -2.03098e-05 1.64024e-05
2.14722e-05 -3.44371e-06 1.64e-05
-2.11026e-05 6.58809e-09 1.62465e-05
-2.24202e-05 1.09997e-05 1.74535e-05
-1.87508e-05 9.25464e-06 1.66269e-05
-1.79826e-05 5.79541e-06 1.60362e-05
-1.49839e-05 7.44828e-06 1.54862e-05
-1.42243e-05 4.30769e-06 1.48295e-05
-1.15325e-05 5.74385e-06 1.40945e-05
-1.08579e-05 3.06871e-06 1.33734e-05
-8.40043e-06 4.30484e-06 1.24041e-05
-9.05874e-06 7.01336e-06 1.34561e-05
-6.20406e-06 5.48847e-06 1.16888e-05
-6.82825e-06 8.24938e-06 1.30797e-05
-4.28137e-06 6.67486e-06 1.14503e-05
-4.79998e-06 9.60986e-06 1.30937e-05
-2.40085e-06 7.99329e-06 1.17228e-05
-2.81283e-06 1.11671e-05 1.34747e-05
-4.75407e-07 9.59523e-06 1.25008e-05
-7.38349e-07 1.29968e-05 1.41415e-05
1.73107e-06 1.15177e-05 1.35348e-05
-5.53465e-06 1.27003e-05 1.44367e-05
1.68507e-06 8.22392e-06 1.17474e-05
4.00415e-06 1.01208e-05 1.31507e-05
3.70533e-06 7.0979e-06 1.1478e-05
6.06736e-06 8.96661e-06 1.31131e-05
5.76678e-06 6.10675e-06 1.17354e-05
8.35802e-06 8.02027e-06 1.34918e-05
8.1056e-06 5.19523e-06 1.25001e-05
1.09539e-05 7.097e-06 1.41467e-05
1.07459e-05 4.32277e-06 1.34989e-05
8.53046e-06 1.10374e-05 1.44605e-05
7.93764e-06 2.64373e-06 1.17272e-05
1.06459e-05 1.73719e-06 1.31038e-05
7.94863e-06 3.58758e-07 1.14554e-05
1.08063e-05 -7.59107e-07 1.31239e-05
8.11159e-06 -1.93779e-06 1.17089e-05
1.10982e-05 -3.31283e-06 1.34837e-05
8.46968e-06 -4.42395e-06 1.24438e-05
1.15036e-05 -6.00284e-06 1.41092e-05
8.95551e-06 -7.13806e-06 1.34279e-05
6.14748e-06 -5.49438e-06 1.16411e-05
6.64445e-06 -8.30081e-06 1.30181e-05
4.10518e-06 -6.58847e-06 1.13107e-05
4.52333e-06 -9.55081e-06 1.29881e-05
2.24228e-06 -7.85824e-06 1.15972e-05
2.48482e-06 -1.10018e-05 1.33507e-05
2.2529e-07 -9.37363e-06 1.23534e-05
3.30012e-07 -1.27697e-05 1.40336e-05
-1.91542e-06 -1.11506e-05 1.33768e-05
-1.84106e-06 -7.92157e-06 1.1582e-05
-4.16787e-06 -9.87479e-06 1.30848e-05
-3.81392e-06 -6.73046e-06 1.13169e-05
-6.34558e-06 -8.66197e-06 1.30991e-05
-5.89126e-06 -5.69798e-06 1.16282e-05
-8.49967e-06 -7.43575e-06 1.33795e-05
-8.1675e-06 -4.72803e-06 1.24084e-05
-1.10956e-05 -6.40273e-06 1.40697e-05
-4.37163e-06 -1.31231e-05 1.44335e-05
-1.08088e-05 -3.65066e-06 1.3439e-05
7.22608e-06 -1.13727e-05 1.42728e-05
-7.74166e-06 1.98267e-06 1.14928e-05
-1.3216e-05 1.03505e-06 1.42108e-05
1.72911e-06 1.50827e-05 1.49521e-05
1.3768e-05 4.62235e-07 1.43876e-05
1.38431e-05 6.10007e-06 1.49316e-05
-9.69401e-06 1.01962e-05 1.45324e-05
-5.41599e-06 -3.19764e-06 1.0182e-05
-1.17135e-05 -9.29729e-06 1.48891e-05
1.18823e-05 -8.76017e-06 1.4787e-05
1.47817e-05 -7.47357e-06 1.54032e-05
-1.39597e-05 -5.24387e-06 1.48615e-05
2.79581e-06 -1.45161e-05 1.47961e-05
4.24561e-07 -1.64993e-05 1.53976e-05
3.51842e-06 4.39692e-06 9.58103e-06
1.40105e-05 9.29902e-06 1.54915e-05
1.79307e-05 8.14492e-06 1.63005e-05
-1.56754e-05 1.13953e-05 1.62334e-05
-1.09408e-06 1.6769e-05 1.54952e-05
1.90685e-06 1.96215e-05 1.63109e-05
-2.09186e-06 5.22006e-06 9.59753e-06
5.55392e-06 -7.84601e-07 9.59408e-06
3.58594e-06 -3.68355e-06 9.08192e-06
-1.77963e-06 -5.17856e-06 9.44954e-06
-2.24687e-05 -1.10108e-05 1.74743e-05
-1.87981e-05 -9.24138e-06 1.6651e-05
2.11478e-05 1.41647e-05 1.75055e-05
2.07537e-05 -1.43176e-05 1.74355e-05
-1.7646e-06 -2.54464e-05 1.75109e-05
-1.68213e-06 2.54105e-05 1.75155e-05
1.77129e-05 -1.19068e-05 1.66871e-05
2.06456e-05 -1.0751e-05 1.71159e-05
3.77563e-06 -1.89851e-05 1.61393e-05
7.68529e-07 -2.03457e-05 1.64828e-05
-1.9405e-05 -1.26505e-05 1.71431e-05
-1.3731e-05 -2.30691e-06 1.44718e-05
-1.65926e-05 -3.70141e-06 1.54774e-05
-1.03758e-05 -1.09638e-06 1.2952e-05
2.4452e-05 1.10727e-05 1.76516e-05
2.54975e-05 -1.24032e-05 1.78481e-05
2.64925e-06 2.67259e-05 1.76604e-05
2.521e-06 -2.64135e-05 1.76293e-05
3.33946e-06 -2.30318e-05 1.7029e-05
-2.05388e-06 -1.83198e-05 1.59508e-05
4.05906e-06 2.37912e-05 1.71303e-05
2.26141e-05 8.37921e-06 1.71192e-05
4.61358e-06 1.73132e-05 1.57272e-05
1.44269e-05 -1.31194e-05 1.61373e-05
-1.57876e-05 -1.09847e-05 1.62145e-05
-1.67997e-05 -3.81425e-07 1.53772e-05
1.73058e-05 4.68745e-06 1.57255e-05
6.55217e-08 -6.38727e-06 1.02673e-05
1.7417e-06 -4.84843e-06 9.09242e-06
5.85043e-06 -2.93549e-06 1.03781e-05
-2.14441e-05 3.75048e-06 1.64587e-05
5.72933e-06 -1.62744e-05 1.55076e-05
9.0834e-06 -1.74989e-05 1.59974e-05
1.75721e-05 1.18816e-05 1.66722e-05
1.39941e-05 -1.63821e-05 1.64011e-05
1.07399e-05 -1.37889e-05 1.555e-05
-3.54795e-06 -4.22017e-06 9.50069e-06
5.39908e-06 1.13849e-06 9.49897e-06
5.21802e-06 3.22285e-06 1.00471e-05
-1.74978e-06 -2.83544e-05 1.78768e-05
1.89205e-06 5.29886e-06 9.58437e-06
-1.13823e-07 6.10496e-06 1.00387e-05
-3.7849e-06 4.12771e-06 9.57833e-06
-5.62264e-06 3.03416e-06 1.02852e-05
-5.16544e-06 1.04067e-06 9.21354e-06
-7.52719e-06 -6.17387e-08 1.11723e-05
-4.33434e-06 -8.10273e-07 8.38179e-06
-3.10857e-06 1.87232e-06 7.37401e-06
-2.2081e-05 -3.60772e-06 1.65157e-05
2.34061e-05 -1.56879e-05 1.7836e-05
-1.50719e-06 2.11678e-05 1.66819e-05
2.12615e-05 -8.45189e-08 1.62256e-05
1.76219e-05 -1.64679e-06 1.55813e-05
1.73476e-05 -4.94163e-06 1.57705e-05
2.18914e-05 -7.45105e-06 1.69135e-05
-2.31821e-05 -1.42545e-05 1.78326e-05
1.73245e-05 1.64886e-06 1.55084e-05
-1.734e-06 2.84729e-05 1.7894e-05
-4.22069e-07 3.68339e-06 7.49524e-06
2.37718e-05 1.57423e-05 1.78845e-05
-1.74972e-05 1.56421e-05 1.69748e-05
-1.06261e-05 -1.8466e-05 1.62549e-05
-1.00995e-05 -1.43422e-05 1.55715e-05
-7.50771e-06 -1.60947e-05 1.56219e-05
-7.32207e-06 -2.01204e-05 1.63952e-05
-1.07044e-05 1.85351e-05 1.62667e-05
-1.03472e-05 1.4384e-05 1.56192e-05
-7.77259e-06 2.04923e-05 1.64441e-05
-4.25296e-06 1.86095e-05 1.60529e-05
1.07596e-05 1.83453e-05 1.6226e-05
1.38916e-05 1.69348e-05 1.64309e-05
1.40418e-05 1.29728e-05 1.60512e-05
-7.36152e-06 1.62882e-05 1.56384e-05
1.0525e-05 1.45469e-05 1.56451e-05
7.74869e-06 1.60922e-05 1.56138e-05
-3.11645e-06 -1.89875e-06 7.39313e-06
-7.25759e-06 -1.24219e-05 1.4625e-05
3.00864e-06 4.03599e-08 6.60093e-06
4.87254e-06 1.35226e-05 1.4618e-05
1.40759e-05 -2.26037e-06 1.45703e-05
-1.72896e-05 -1.52166e-05 1.69454e-05
-1.73664e-05 2.42029e-06 1.55977e-05
-1.22046e-05 8.91188e-06 1.49434e-05
-7.70558e-06 -2.29251e-06 1.15546e-05
-1.24497e-05 1.18126e-05 1.55399e-05
-1.42735e-07 -3.75421e-06 7.55413e-06
2.73022e-06 2.27207e-06 7.25188e-06
-2.00385e-06 -1.46504e-05 1.4808e-05
9.36503e-06 -1.00682e-05 1.43893e-05
1.38607e-05 3.15779e-06 1.4566e-05
-7.33999e-06 1.11993e-05 1.42602e-05
4.99719e-06 -1.27747e-05 1.43692e-05
1.10318e-05 1.04304e-05 1.49196e-05
-3.59642e-06 1.46852e-05 1.49079e-05
-4.63544e-06 -1.66168e-05 1.55487e-05
-1.9507e-05 1.28924e-05 1.71612e-05
-2.31268e-05 1.48581e-05 1.78434e-05
-1.29049e-05 -1.2686e-05 1.58124e-05
3.76078e-06 -1.58612e-06 7.90691e-06
1.76439e-06 2.92227e-06 7.0844e-06
-9.23043e-06 -1.06094e-05 1.45317e-05
1.72773e-06 -2.82315e-06 6.93103e-06
9.94729e-07 2.41168e-05 1.73084e-05
2.13679e-05 1.11938e-05 1.72986e-05
-1.46646e-05 -7.95335e-06 1.54853e-05
1.3708e-05 -4.7863e-06 1.46906e-05
-1.90988e-06 -2.17629e-05 1.68027e-05
1.80603e-05 -8.41903e-06 1.63407e-05
-1.66789e-05 -6.32854e-06 1.57824e-05
-4.32899e-07 -1.92232e-06 4.79845e-06
-1.80536e-06 2.99543e-06 7.17714e-06
-2.50519e-05 -1.29818e-05 1.79222e-05
-2.51271e-05 -1.45072e-05 1.80021e-05
-2.50451e-05 1.30337e-05 1.7906e-05
-2.5118e-05 1.46499e-05 1.79821e-05
-1.64845e-06 -3.12484e-06 7.20988e-06
6.32792e-06 1.13683e-05 1.40765e-05
5.3371e-07 -2.4086e-05 1.73022e-05
-5.22776e-07 1.80954e-06 4.64499e-06
7.40743e-06 -1.43436e-05 1.51523e-05
2.33028e-05 -1.32093e-05 1.77288e-05
2.36326e-05 -1.05375e-05 1.74908e-05
1.19884e-05 -1.82109e-05 1.62932e-05
1.47301e-05 -1.01466e-05 1.57955e-05
-1.0027e-05 1.00124e-06 1.27546e-05
-1.74001e-06 -8.159e-07 4.72344e-06
7.69062e-07 3.70834e-06 7.57311e-06
2.34307e-06 -1.99715e-06 6.55526e-06
2.01565e-05 5.8978e-06 1.64536e-05
5.07008e-06 2.05959e-05 1.6496e-05
3.42118e-07 -2.768e-05 1.7854e-05
-1.73122e-06 7.0911e-07 4.60631e-06
-3.2115e-06 6.23046e-07 6.82412e-06
3.57721e-06 1.47541e-06 7.63659e-06
4.99225e-07 2.83238e-05 1.79272e-05
2.47603e-05 1.37341e-05 1.79184e-05
-2.03283e-05 1.55358e-05 1.7429e-05
1.1787e-06 1.36447e-06 4.45984e-06
-2.06396e-05 -1.57284e-05 1.75276e-05
-1.89988e-05 -2.32217e-06 1.59461e-05
-1.95591e-05 -5.58497e-06 1.63322e-05
9.0568e-07 -3.24775e-06 7.00608e-06
-4.36601e-06 -1.97892e-05 1.63218e-05
-7.93726e-06 1.38344e-05 1.5101e-05
1.16575e-06 -1.30418e-06 4.33928e-06
1.19344e-05 -1.12283e-05 1.52921e-05
6.13306e-06 -2.2696e-05 1.68205e-05
-1.45221e-05 1.43553e-05 1.63236e-05
7.92905e-06 1.33212e-05 1.49479e-05
1.79367e-06 8.58742e-07 -4.55222e-06
1.73781e-06 -8.2511e-07 -4.46077e-06
4.31952e-07 1.84962e-06 -4.49509e-06
4.36096e-07 -1.78062e-06 -4.35606e-06
-1.84748e-06 2.0963e-08 -4.42233e-06
-1.12308e-06 -1.30887e-06 -4.15097e-06
-1.1592e-06 1.30679e-06 -4.19975e-06
-2.25129e-05 -7.28763e-06 -1.69998e-05
-2.21963e-05 7.37152e-06 -1.69685e-05
-4.86042e-06 2.28984e-05 -1.69369e-05
-4.85793e-06 -2.31315e-05 -1.69638e-05
1.74211e-05 1.56354e-05 -1.69297e-05
1.75687e-05 -1.55364e-05 -1.6939e-05
2.10734e-05 3.16386e-06 -1.63243e-05
-1.3953e-05 1.71511e-05 -1.64783e-05
-1.35911e-05 -1.67411e-05 -1.64098e-05
7.7678e-06 1.98194e-05 -1.63311e-05
7.68482e-06 -2.03098e-05 -1.64024e-05
2.14722e-05 -3.44371e-06 -1.64e-05
-2.11026e-05 6.58809e-09 -1.62465e-05
-2.24202e-05 1.09997e-05 -1.74535e-05
-1.87508e-05 9.25464e-06 -1.66269e-05
-1.79826e-05 5.79541e-06 -1.60362e-05
-1.49839e-05 7.44828e-06 -1.54862e-05
-1.42243e-05 4.30769e-06 -1.48295e-05
-1.15325e-05 5.74385e-06 -1.40945e-05
-1.08579e-05 3.06871e-06 -1.33734e-05
-8.40043e-06 4.30484e-06 -1.24041e-05
-9.05874e-06 7.01336e-06 -1.34561e-05
-6.20406e-06 5.48847e-06 -1.16888e-05
-6.82825e-06 8.24938e-06 -1.30797e-05
-4.28137e-06 6.67486e-06 -1.14503e-05
-4.79998e-06 9.60986e-06 -1.30937e-05
-2.40085e-06 7.99329e-06 -1.17228e-05
-2.81283e-06 1.11671e-05 -1.34747e-05
-4.75407e-07 9.59523e-06 -1.25008e-05
-7.38349e-07 1.29968e-05 -1.41415e-05
1.73107e-06 1.15177e-05 -1.35348e-05
-5.53465e-06 1.27003e-05 -1.44367e-05
1.68507e-06 8.22392e-06 -1.17474e-05
4.00415e-06 1.01208e-05 -1.31507e-05
3.70533e-06 7.0979e-06 -1.1478e-05
6.06736e-06 8.96661e-06 -1.31131e-05
5.76678e-06 6.10675e-06 -1.17354e-05
8.35802e-06 8.02027e-06 -1.34918e-05
8.1056e-06 5.19523e-06 -1.25001e-05
1.09539e-05 7.097e-06 -1.41467e-05
1.07459e-05 4.32277e-06 -1.34989e-05
8.53046e-06 1.10374e-05 -1.44605e-05
7.93764e-06 2.64373e-06 -1.17272e-05
1.06459e-05 1.73719e-06 -1.31038e-05
7.94863e-06 3.58758e-07 -1.14554e-05
1.08063e-05 -7.59107e-07 -1.31239e-05
8.11159e-06 -1.93779e-06 -1.17089e-05
1.10982e-05 -3.31283e-06 -1.34837e-05
8.46968e-06 -4.42395e-06 -1.24438e-05
1.15036e-05 -6.00284e-06 -1.41092e-05
8.95551e-06 -7.13806e-06 -1.34279e-05
6.14748e-06 -5.49438e-06 -1.16411e-05
6.64445e-06 -8.30081e-06 -1.30181e-05
4.10518e-06 -6.58847e-06 -1.13107e-05
4.52333e-06 -9.55081e-06 -1.29881e-05
2.24228e-06 -7.85824e-06 -1.15972e-05
2.48482e-06 -1.10018e-05 -1.33507e-05
2.2529e-07 -9.37363e-06 -1.23534e-05
3.30012e-07 -1.27697e-05 -1.40336e-05
-1.91542e-06 -1.11506e-05 -1.33768e-05
-1.84106e-06 -7.92157e-06 -1.1582e-05
-4.16787e-06 -9.87479e-06 -1.30848e-05
-3.81392e-06 -6.73046e-06 -1.13169e-05
-6.34558e-06 -8.66197e-06 -1.30991e-05
-5.89126e-06 -5.69798e-06 -1.16282e-05
-8.49967e-06 -7.43575e-06 -1.33795e-05
-8.1675e-06 -4.72803e-06 -1.24084e-05
-1.10956e-05 -6.40273e-06 -1.40697e-05
-4.37163e-06 -1.31231e-05 -1.44335e-05
-1.08088e-05 -3.65066e-06 -1.3439e-05
7.22608e-06 -1.13727e-05 -1.42728e-05
-7.74166e-06 1.98267e-06 -1.14928e-05
-1.3216e-05 1.03505e-06 -1.42108e-05
1.72911e-06 1.50827e-05 -1.49521e-05
1.3768e-05 4.62235e-07 -1.43876e-05
1.38431e-05 6.10007e-06 -1.49316e-05
-9.69401e-06 1.01962e-05 -1.45324e-05
-5.41599e-06 -3.19764e-06 -1.0182e-05
-1.17135e-05 -9.29729e-06 -1.48891e-05
1.18823e-05 -8.76017e-06 -1.4787e-05
1.47817e-05 -7.47357e-06 -1.54032e-05
-1.39597e-05 -5.24387e-06 -1.48615e-05
2.79581e-06 -1.45161e-05 -1.47961e-05
4.24561e-07 -1.64993e-05 -1.53976e-05
3.51842e-06 4.39692e-06 -9.58103e-06
1.40105e-05 9.29902e-06 -1.54915e-05
1.79307e-05 8.14492e-06 -1.63005e-05
-1.56754e-05 1.13953e-05 -1.62334e-05
-1.09408e-06 1.6769e-05 -1.54952e-05
1.90685e-06 1.96215e-05 -1.63109e-05
-2.09186e-06 5.22006e-06 -9.59753e-06
5.55392e-06 -7.84601e-07 -9.59408e-06
3.58594e-06 -3.68355e-06 -9.08192e-06
-1.77963e-06 -5.17856e-06 -9.44954e-06
-2.24687e-05 -1.10108e-05 -1.74743e-05
-1.87981e-05 -9.24138e-06 -1.6651e-05
2.11478e-05 1.41647e-05 -1.75055e-05
2.07537e-05 -1.43176e-05 -1.74355e-05
-1.7646e-06 -2.54464e-05 -1.75109e-05
-1.68213e-06 2.54105e-05 -1.75155e-05
1.77129e-05 -1.19068e-05 -1.66871e-05
2.06456e-05 -1.0751e-05 -1.71159e-05
3.77563e-06 -1.89851e-05 -1.61393e-05
7.68529e-07 -2.03457e-05 -1.64828e-05
-1.9405e-05 -1.26505e-05 -1.71431e-05
-1.3731e-05 -2.30691e-06 -1.44718e-05
-1.65926e-05 -3.70141e-06 -1.54774e-05
-1.03758e-05 -1.09638e-06 -1.2952e-05
2.4452e-05 1.10727e-05 -1.76516e-05
2.54975e-05 -1.24032e-05 -1.78481e-05
2.64925e-06 2.67259e-05 -1.76604e-05
2.521e-06 -2.64135e-05 -1.76293e-05
3.33946e-06 -2.30318e-05 -1.7029e-05
-2.05388e-06 -1.83198e-05 -1.59508e-05
4.05906e-06 2.37912e-05 -1.71303e-05
2.26141e-05 8.37921e-06 -1.71192e-05
4.61358e-06 1.73132e-05 -1.57272e-05
1.44269e-05 -1.31194e-05 -1.61373e-05
-1.57876e-05 -1.09847e-05 -1.62145e-05
-1.67997e-05 -3.81425e-07 -1.53772e-05
1.73058e-05 4.68745e-06 -1.57255e-05
6.55217e-08 -6.38727e-06 -1.02673e-05
1.7417e-06 -4.84843e-06 -9.09242e-06
5.85043e-06 -2.93549e-06 -1.03781e-05
-2.14441e-05 3.75048e-06 -1.64587e-05
5.72933e-06 -1.62744e-05 -1.55076e-05
9.0834e-06 -1.74989e-05 -1.59974e-05
1.75721e-05 1.18816e-05 -1.66722e-05
1.39941e-05 -1.63821e-05 -1.64011e-05
1.07399e-05 -1.37889e-05 -1.555e-05
-3.54795e-06 -4.22017e-06 -9.50069e-06
5.39908e-06 1.13849e-06 -9.49897e-06
5.21802e-06 3.22285e-06 -1.00471e-05
-1.74978e-06 -2.83544e-05 -1.78768e-05
1.89205e-06 5.29886e-06 -9.58437e-06
-1.13823e-07 6.10496e-06 -1.00387e-05
-3.7849e-06 4.12771e-06 -9.57833e-06
-5.62264e-06 3.03416e-06 -1.02852e-05
-5.16544e-06 1.04067e-06 -9.21354e-06
-7.52719e-06 -6.17387e-08 -1.11723e-05
-4.33434e-06 -8.10273e-07 -8.38179e-06
-3.10857e-06 1.87232e-06 -7.37401e-06
-2.2081e-05 -3.60772e-06 -1.65157e-05
2.34061e-05 -1.56879e-05 -1.7836e-05
-1.50719e-06 2.11678e-05 -1.66819e-05
2.12615e-05 -8.45189e-08 -1.62256e-05
1.76219e-05 -1.64679e-06 -1.55813e-05
1.73476e-05 -4.94163e-06 -1.57705e-05
2.18914e-05 -7.45105e-06 -1.69135e-05
-2.31821e-05 -1.42545e-05 -1.78326e-05
1.73245e-05 1.64886e-06 -1.55084e-05
-1.734e-06 2.84729e-05 -1.7894e-05