# vtk DataFile Version 3.0
vtk output at time 90
ASCII
DATASET UNSTRUCTURED_GRID
POINTS 626 float
-3.68058e-05 0.000978749 0 3.68058e-05 0.000978749 0 -0.000829194 0.00052125 0 
-0.0008235 0.0005 0 -0.000866 0.0004575 0 -0.000866 -0.0004575 0 
-0.0008235 -0.0005 0 -0.000829194 -0.00052125 0 -3.68058e-05 -0.000978749 0 
3.68058e-05 -0.000978749 0 0.000829194 -0.00052125 0 0.000866 -0.0004575 0 
0.000866 0.0004575 0 0.000829194 0.00052125 0 8.5e-05 0 0 
-3.68058e-05 0.000978749 -0.001 3.68058e-05 0.000978749 -0.001 -0.000829194 0.00052125 -0.001 
-0.0008235 0.0005 -0.001 -0.000866 0.0004575 -0.001 -0.000866 -0.0004575 -0.001 
-0.0008235 -0.0005 -0.001 -0.000829194 -0.00052125 -0.001 -3.68058e-05 -0.000978749 -0.001 
3.68058e-05 -0.000978749 -0.001 0.000829194 -0.00052125 -0.001 0.000866 -0.0004575 -0.001 
0.000866 0.0004575 -0.001 0.000829194 0.00052125 -0.001 8.5e-05 0 -0.001 
8.46223e-17 0.0009575 0 -0.000715996 0.000586607 0 -0.000602797 0.000651965 0 
-0.000489599 0.000717321 0 -0.000376401 0.000782678 0 -0.000263202 0.000848036 0 
-0.000150004 0.000913393 0 -0.000835948 0.000469948 0 -0.000866 -0.000326786 0 
-0.000866 -0.000196071 0 -0.000866 -6.53571e-05 0 -0.000866 6.53571e-05 0 
-0.000866 0.000196071 0 -0.000866 0.000326786 0 -0.000835948 -0.000469948 0 
-0.000150004 -0.000913393 0 -0.000263202 -0.000848036 0 -0.000376401 -0.000782678 0 
-0.000489599 -0.000717321 0 -0.000602797 -0.000651965 0 -0.000715996 -0.000586607 0 
8.47648e-17 -0.0009575 0 0.000715996 -0.000586607 0 0.000602797 -0.000651965 0 
0.000489599 -0.000717321 0 0.000376401 -0.000782678 0 0.000263202 -0.000848036 0 
0.000150004 -0.000913393 0 0.000829194 -0.00047875 0 0.000866 0.000326786 0 
0.000866 0.000196071 0 0.000866 6.53571e-05 0 0.000866 -6.53571e-05 0 
0.000866 -0.000196071 0 0.000866 -0.000326786 0 0.000829194 0.00047875 0 
0.000150004 0.000913393 0 0.000263202 0.000848036 0 0.000376401 0.000782678 0 
0.000489599 0.000717321 0 0.000602797 0.000651965 0 0.000715996 0.000586607 0 
5.29966e-05 6.64557e-05 0 -1.89143e-05 8.28689e-05 0 -7.65824e-05 3.68801e-05 0 
-7.65824e-05 -3.68801e-05 0 -1.89143e-05 -8.28689e-05 0 5.29966e-05 -6.64557e-05 0 
8.46223e-17 0.0009575 -0.001 -0.000715996 0.000586607 -0.001 -0.000602797 0.000651965 -0.001 
-0.000489599 0.000717321 -0.001 -0.000376401 0.000782678 -0.001 -0.000263202 0.000848036 -0.001 
-0.000150004 0.000913393 -0.001 -0.000835948 0.000469948 -0.001 -0.000866 -0.000326786 -0.001 
-0.000866 -0.000196071 -0.001 -0.000866 -6.53571e-05 -0.001 -0.000866 6.53571e-05 -0.001 
-0.000866 0.000196071 -0.001 -0.000866 0.000326786 -0.001 -0.000835948 -0.000469948 -0.001 
-0.000150004 -0.000913393 -0.001 -0.000263202 -0.000848036 -0.001 -0.000376401 -0.000782678 -0.001 
-0.000489599 -0.000717321 -0.001 -0.000602797 -0.000651965 -0.001 -0.000715996 -0.000586607 -0.001 
8.47648e-17 -0.0009575 -0.001 0.000715996 -0.000586607 -0.001 0.000602797 -0.000651965 -0.001 
0.000489599 -0.000717321 -0.001 0.000376401 -0.000782678 -0.001 0.000263202 -0.000848036 -0.001 
0.000150004 -0.000913393 -0.001 0.000829194 -0.00047875 -0.001 0.000866 0.000326786 -0.001 
0.000866 0.000196071 -0.001 0.000866 6.53571e-05 -0.001 0.000866 -6.53571e-05 -0.001 
0.000866 -0.000196071 -0.001 0.000866 -0.000326786 -0.001 0.000829194 0.00047875 -0.001 
0.000150004 0.000913393 -0.001 0.000263202 0.000848036 -0.001 0.000376401 0.000782678 -0.001 
0.000489599 0.000717321 -0.001 0.000602797 0.000651965 -0.001 0.000715996 0.000586607 -0.001 
5.29966e-05 6.64557e-05 -0.001 -1.89143e-05 8.28689e-05 -0.001 -7.65824e-05 3.68801e-05 -0.001 
-7.65824e-05 -3.68801e-05 -0.001 -1.89143e-05 -8.28689e-05 -0.001 5.29966e-05 -6.64557e-05 -0.001 
0.000131234 6.38474e-05 0 0.00012964 -6.2443e-05 0 3.13827e-05 0.0001394 0 
3.12554e-05 -0.000136939 0 -0.000140461 8.25467e-19 0 -8.90565e-05 -0.000102707 0 
-9.04142e-05 0.000102872 0 -0.000765769 -0.00025965 0 -0.000756873 0.000262774 0 
-0.00015609 0.000787505 0 -0.000155807 -0.00079355 0 0.000605069 0.000528035 0 
0.000608694 -0.00052497 0 0.000744069 0.000116929 0 -0.000494418 0.000596218 0 
-0.000483866 -0.000584648 0 0.000269496 0.000702219 0 0.000263201 -0.000717324 0 
0.000754429 -0.000127825 0 -0.000748858 5.84659e-07 0 -0.000747838 0.000373886 0 
-0.0006542 0.000324842 0 -0.000645137 0.000210123 0 -0.000550884 0.000274171 0 
-0.000538857 0.000163195 0 -0.00045062 0.000224461 0 -0.000438393 0.000123907 0 
-0.000354088 0.000181668 0 -0.000363908 0.000282171 0 -0.000270361 0.000239477 0 
-0.000279138 0.000337653 0 -0.000188888 0.000294791 0 -0.000196448 0.000393271 0 
-0.000104767 0.000348259 0 -0.000113332 0.000449012 0 -2.01066e-05 0.000403223 0 
-2.89189e-05 0.000507105 0 6.9524e-05 0.000461596 0 -0.000213644 0.000490203 0 
7.33757e-05 0.000357726 0 0.000163331 0.00041299 0 0.000163359 0.000313022 0 
0.000248077 0.000366368 0 0.000250914 0.000265758 0 0.000335709 0.000322266 0 
0.000340555 0.000218148 0 0.000427299 0.000276717 0 0.000431508 0.000173093 0 
0.000328731 0.000425633 0 0.00034586 0.000114823 0 0.000435362 7.05241e-05 0 
0.000350892 1.5455e-05 0 0.000441547 -3.11896e-05 0 0.000353547 -8.47783e-05 0 
0.000445767 -0.000132964 0 0.000356135 -0.000186358 0 0.000449094 -0.000234674 0 
0.000359978 -0.000287876 0 0.00026856 -0.000240545 0 0.000271895 -0.000341045 0 
0.000181792 -0.00029305 0 0.00018533 -0.000392851 0 9.75701e-05 -0.00034483 0 
9.98764e-05 -0.000444884 0 8.75116e-06 -0.000396343 0 1.20916e-05 -0.000500496 0 
-7.83929e-05 -0.000449843 0 -8.1471e-05 -0.000347249 0 -0.000171566 -0.000403733 0 
-0.000169889 -0.000298891 0 -0.000259867 -0.000354132 0 -0.000257696 -0.000249137 0 
-0.00034313 -0.000299896 0 -0.000344514 -0.000199127 0 -0.000434309 -0.000250039 0 
-0.000169832 -0.000505815 0 -0.000435227 -0.000146227 0 0.000280331 -0.000442424 0 
-0.000340889 8.76793e-05 0 -0.000515252 4.06198e-05 0 6.50491e-05 0.000568253 0 
0.00053278 1.74743e-05 0 0.000522071 0.000229831 0 -0.00037162 0.000391659 0 
-0.000255272 -0.000150439 0 -0.000442893 -0.000350705 0 0.000450067 -0.000332559 0 
0.000545175 -0.000276306 0 -0.000527797 -0.000197598 0 0.000105306 -0.000551033 0 
1.45836e-05 -0.000609147 0 0.00017145 0.000214453 0 0.000515525 0.000341711 0 
0.000636086 0.000290368 0 -0.000558657 0.000404468 0 -4.01232e-05 0.000616718 0 
6.60192e-05 0.000696422 0 -0.000101806 0.0002546 0 0.000271142 -3.88908e-05 0 
0.000179455 -0.00018534 0 -8.79553e-05 -0.000254307 0 -0.000749267 -0.000373451 0 
-0.000655941 -0.000323397 0 0.000709746 0.000466718 0 0.000698426 -0.000473086 0 
-5.25801e-05 -0.00084886 0 -4.93005e-05 0.000848038 0 0.000617396 -0.000413362 0 
0.000702056 -0.000369817 0 0.000131459 -0.000679171 0 2.48171e-05 -0.000715924 0 
-0.000664217 -0.00042729 0 -0.000528828 -8.80444e-05 0 -0.000611101 -0.000136672 0 
-0.000426972 -4.45841e-05 0 0.000800669 0.000378216 0 0.000821144 -0.000415062 0 
7.2799e-05 0.00088254 0 6.81831e-05 -0.00087503 0 0.000104963 -0.000788946 0 
-7.40696e-05 -0.000660054 0 0.000126061 0.000809943 0 0.000764361 0.000295682 0 
0.000166862 0.000630623 0 0.000516462 -0.00046707 0 -0.000563585 -0.000389606 0 
-0.000622598 -1.40238e-05 0 0.000629891 0.000171529 0 2.5614e-06 -0.000299794 0 
8.6901e-05 -0.00024329 0 0.000272045 -0.000136982 0 -0.00075148 0.000138321 0 
0.000209366 -0.000599589 0 0.000324913 -0.000630055 0 0.000614044 0.00041245 0 
0.00049651 -0.000573327 0 0.000394822 -0.000507321 0 -0.000173714 -0.000206698 0 
0.000264897 5.63722e-05 0 0.000247997 0.000152811 0 -4.63327e-05 -0.000920208 0 
9.18688e-05 0.000258626 0 -5.54111e-06 0.000290558 0 -0.000184219 0.000201484 0 
-0.000263559 0.000142267 0 -0.000256427 5.13624e-05 0 -0.000336894 -2.06179e-06 0 
-0.000228499 -4.2388e-05 0 -0.00017589 0.000106626 0 -0.000769947 -0.000133367 0 
0.000767591 -0.000500293 0 -5.05874e-05 0.000737978 0 0.000754456 -3.51771e-06 0 
0.00064691 -6.15298e-05 0 0.000630483 -0.00018134 0 0.000749187 -0.000265543 0 
-0.000760805 -0.000462521 0 0.000638155 6.09315e-05 0 -4.46661e-05 0.000922995 0 
-2.37945e-05 0.000207237 0 0.000776979 0.000500181 0 -0.000605691 0.000527596 0 
-0.000377914 -0.000653727 0 -0.000372325 -0.000526022 0 -0.000275829 -0.000589621 0 
-0.000254285 -0.000710579 0 -0.000379307 0.000656222 0 -0.000379818 0.00052718 0 
-0.000266817 0.000721555 0 -0.000150544 0.000668174 0 0.000381963 0.00065079 0 
0.000493113 0.000590432 0 0.000505439 0.000463708 0 -0.000269094 0.000596608 0 
0.000385815 0.000532045 0 0.000283599 0.0005899 0 -0.000176405 -0.000108505 0 
-0.000278769 -0.000475415 0 0.000185395 2.33014e-06 0 0.000186773 0.000517571 0 
0.000540032 -8.68444e-05 0 -0.000600694 -0.000514877 0 -0.00063703 8.98033e-05 0 
-0.000459677 0.000335729 0 -0.000338836 -0.000100751 0 -0.000457327 0.000432721 0 
-8.72007e-06 -0.000210238 0 0.000156073 0.000129496 0 -7.70692e-05 -0.000555049 0 
0.00036091 -0.000389728 0 0.000531628 0.000120564 0 -0.000285451 0.000435562 0 
0.000192719 -0.000494604 0 0.00041642 0.00039368 0 -0.000135943 0.000554637 0 
-0.000170665 -0.000610079 0 -0.000666304 0.000434981 0 -0.000758736 0.000479231 0 
-0.000470189 -0.000458901 0 0.000203433 -8.59809e-05 0 0.000101846 0.000170114 0 
-0.00035513 -0.00040726 0 0.000100184 -0.000165831 0 2.96286e-05 0.00081537 0 
0.000720946 0.000381836 0 -0.000539809 -0.000292001 0 0.00052211 -0.000182426 0 
-6.41339e-05 -0.000753908 0 0.000638039 -0.000299861 0 -0.000605136 -0.000230182 0 
-3.41638e-05 -0.000145561 0 -0.000104037 0.000172396 0 -0.000808575 -0.00042774 0 
-0.000807207 -0.000465052 0 -0.00080817 0.000429771 0 -0.000806589 0.000469738 0 
-9.50634e-05 -0.000178909 0 0.000247777 0.000445058 0 1.48293e-05 -0.000814201 0 
-4.11555e-05 0.000140955 0 0.000276104 -0.000536845 0 0.000765969 -0.000436638 0 
0.000780871 -0.000362769 0 0.000424176 -0.000642018 0 0.00053413 -0.000368009 0 
-0.000416333 4.17911e-05 0 -0.000133891 -6.23822e-05 0 4.2574e-05 0.000206312 0 
[...]
POINT_DATA 626
VECTORS displacement float
-1.74393e-06 3.09574e-05 1.80564e-05
1.73563e-06 3.09765e-05 1.81015e-05
-2.59889e-05 1.69943e-05 1.80884e-05
-2.58435e-05 1.60345e-05 1.8053e-05
-2.77232e-05 1.39743e-05 1.80704e-05
-2.77162e-05 -1.40206e-05 1.80959e-05
-2.58147e-05 -1.60726e-05 1.81072e-05
-2.59851e-05 -1.70124e-05 1.81684e-05
-1.67739e-06 -3.09612e-05 1.80528e-05
1.75543e-06 -3.09627e-05 1.81033e-05
2.59462e-05 -1.69822e-05 1.80449e-05
2.77196e-05 -1.39382e-05 1.80447e-05
2.7675e-05 1.39909e-05 1.8093e-05
2.59176e-05 1.69945e-05 1.80474e-05
0 0 0
-1.74393e-06 3.09574e-05 -1.80564e-05
1.73563e-06 3.09765e-05 -1.81015e-05
-2.59889e-05 1.69943e-05 -1.80884e-05
-2.58435e-05 1.60345e-05 -1.8053e-05
-2.77232e-05 1.39743e-05 -1.80704e-05
-2.77162e-05 -1.40206e-05 -1.80959e-05
-2.58147e-05 -1.60726e-05 -1.81072e-05
-2.59851e-05 -1.70124e-05 -1.81684e-05
-1.67739e-06 -3.09612e-05 -1.80528e-05
1.75543e-06 -3.09627e-05 -1.81033e-05
2.59462e-05 -1.69822e-05 -1.80449e-05
2.77196e-05 -1.39382e-05 -1.80447e-05
2.7675e-05 1.39909e-05 -1.8093e-05
2.59176e-05 1.69945e-05 -1.80474e-05
0 0 0
2.48816e-08 3.01573e-05 1.80356e-05
-2.11431e-05 1.87142e-05 1.75513e-05
-1.72347e-05 1.9836e-05 1.69225e-05
-1.40087e-05 2.10567e-05 1.65567e-05
-1.12082e-05 2.26676e-05 1.65506e-05
-8.52487e-06 2.48358e-05 1.6903e-05
-5.5681e-06 2.76248e-05 1.7539e-05
-2.64524e-05 1.46806e-05 1.80349e-05
-2.67715e-05 -9.01281e-06 1.75789e-05
-2.58092e-05 -5.0363e-06 1.69276e-05
-2.52575e-05 -1.63649e-06 1.65732e-05
-2.52605e-05 1.60812e-06 1.65761e-05
-2.58015e-05 5.02368e-06 1.69258e-05
-2.67577e-05 8.98589e-06 1.75654e-05
-2.64393e-05 -1.47269e-05 1.80636e-05
-5.54135e-06 -2.76392e-05 1.75312e-05
-8.47739e-06 -2.48449e-05 1.69023e-05
-1.11714e-05 -2.26871e-05 1.65579e-05
-1.39724e-05 -2.10897e-05 1.65613e-05
-1.72171e-05 -1.98713e-05 1.69383e-05
-2.11367e-05 -1.87509e-05 1.75637e-05
8.9823e-08 -3.0142e-05 1.80307e-05
2.11265e-05 -1.86266e-05 1.7513e-05
1.72469e-05 -1.97644e-05 1.68745e-05
1.40357e-05 -2.10137e-05 1.65133e-05
1.12263e-05 -2.25958e-05 1.65479e-05
8.58201e-06 -2.47831e-05 1.68758e-05
5.65495e-06 -2.76295e-05 1.75365e-05
2.61271e-05 -1.50611e-05 1.80297e-05
2.67196e-05 8.9397e-06 1.7503e-05
2.5725e-05 5.05042e-06 1.69101e-05
2.52096e-05 1.62361e-06 1.65249e-05
2.52067e-05 -1.59971e-06 1.65232e-05
2.57537e-05 -4.9982e-06 1.689e-05
2.67017e-05 -8.91844e-06 1.75112e-05
2.61102e-05 1.50623e-05 1.80268e-05
5.63341e-06 2.76209e-05 1.75111e-05
8.50939e-06 2.48098e-05 1.69129e-05
1.12184e-05 2.26438e-05 1.65311e-05
1.40063e-05 2.10247e-05 1.65265e-05
1.72239e-05 1.97956e-05 1.68868e-05
2.11175e-05 1.86362e-05 1.75269e-05
0 0 0
0 0 0
0 0 0
0 0 0
0 0 0
0 0 0
2.48816e-08 3.01573e-05 -1.80356e-05
-2.11431e-05 1.87142e-05 -1.75513e-05
-1.72347e-05 1.9836e-05 -1.69225e-05
-1.40087e-05 2.10567e-05 -1.65567e-05
-1.12082e-05 2.26676e-05 -1.65506e-05
-8.52487e-06 2.48358e-05 -1.6903e-05
-5.5681e-06 2.76248e-05 -1.7539e-05
-2.64524e-05 1.46806e-05 -1.80349e-05
-2.67715e-05 -9.01281e-06 -1.75789e-05
-2.58092e-05 -5.0363e-06 -1.69276e-05
-2.52575e-05 -1.63649e-06 -1.65732e-05
-2.52605e-05 1.60812e-06 -1.65761e-05
-2.58015e-05 5.02368e-06 -1.69258e-05
-2.67577e-05 8.98589e-06 -1.75654e-05
-2.64393e-05 -1.47269e-05 -1.80636e-05
-5.54135e-06 -2.76392e-05 -1.75312e-05
-8.47739e-06 -2.48449e-05 -1.69023e-05
-1.11714e-05 -2.26871e-05 -1.65579e-05
-1.39724e-05 -2.10897e-05 -1.65613e-05
-1.72171e-05 -1.98713e-05 -1.69383e-05
-2.11367e-05 -1.87509e-05 -1.75637e-05
8.9823e-08 -3.0142e-05 -1.80307e-05
2.11265e-05 -1.86266e-05 -1.7513e-05
1.72469e-05 -1.97644e-05 -1.68745e-05
1.40357e-05 -2.10137e-05 -1.65133e-05
1.12263e-05 -2.25958e-05 -1.65479e-05
8.58201e-06 -2.47831e-05 -1.68758e-05
5.65495e-06 -2.76295e-05 -1.75365e-05
2.61271e-05 -1.50611e-05 -1.80297e-05
2.67196e-05 8.9397e-06 -1.7503e-05
2.5725e-05 5.05042e-06 -1.69101e-05
2.52096e-05 1.62361e-06 -1.65249e-05
2.52067e-05 -1.59971e-06 -1.65232e-05
2.57537e-05 -4.9982e-06 -1.689e-05
2.67017e-05 -8.91844e-06 -1.75112e-05
2.61102e-05 1.50623e-05 -1.80268e-05
5.63341e-06 2.76209e-05 -1.75111e-05
8.50939e-06 2.48098e-05 -1.69129e-05
1.12184e-05 2.26438e-05 -1.65311e-05
1.40063e-05 2.10247e-05 -1.65265e-05
1.72239e-05 1.97956e-05 -1.68868e-05
2.11175e-05 1.86362e-05 -1.75269e-05
0 0 0
0 0 0
0 0 0
0 0 0
0 0 0
0 0 0
1.79384e-06 8.58823e-07 4.55279e-06
1.73797e-06 -8.25188e-07 4.46133e-06
4.31992e-07 1.84979e-06 4.49565e-06
4.36136e-07 -1.78079e-06 4.3566e-06
-1.84765e-06 2.09656e-08 4.42289e-06
-1.12319e-06 -1.30899e-06 4.15149e-06
-1.15931e-06 1.30691e-06 4.20028e-06
-2.25156e-05 -7.28862e-06 1.70015e-05
-2.21989e-05 7.37251e-06 1.69702e-05
-4.8609e-06 2.29012e-05 1.69386e-05
-4.85841e-06 -2.31343e-05 1.69655e-05
1.74233e-05 1.56372e-05 1.69314e-05
1.75709e-05 -1.55382e-05 1.69407e-05
2.10761e-05 3.16432e-06 1.63261e-05
-1.39549e-05 1.71533e-05 1.64801e-05
-1.35929e-05 -1.67432e-05 1.64116e-05
7.76873e-06 1.98219e-05 1.63329e-05
7.68572e-06 -2.03124e-05 1.64042e-05
2.14749e-05 -3.44421e-06 1.64019e-05
-2.11053e-05 6.58818e-09 1.62484e-05
-2.24228e-05 1.1001e-05 1.74551e-05
-1.87531e-05 9.25578e-06 1.66287e-05
-1.79849e-05 5.79616e-06 1.6038e-05
-1.49857e-05 7.44922e-06 1.5488e-05
-1.42262e-05 4.30824e-06 1.48313e-05
-1.1534e-05 5.74457e-06 1.40963e-05
-1.08593e-05 3.0691e-06 1.33751e-05
-8.40147e-06 4.30537e-06 1.24057e-05
-9.05988e-06 7.01423e-06 1.34579e-05
-6.20482e-06 5.48914e-06 1.16903e-05
-6.82911e-06 8.25042e-06 1.30814e-05
-4.28189e-06 6.67567e-06 1.14518e-05
-4.80058e-06 9.61106e-06 1.30954e-05
-2.40115e-06 7.99427e-06 1.17243e-05
-2.81319e-06 1.11686e-05 1.34764e-05
-4.75469e-07 9.59642e-06 1.25024e-05
-7.38446e-07 1.29985e-05 1.41433e-05
1.73128e-06 1.15191e-05 1.35365e-05
-5.53536e-06 1.27019e-05 1.44385e-05
1.68527e-06 8.22493e-06 1.17489e-05
4.00465e-06 1.01221e-05 1.31524e-05
3.70578e-06 7.09877e-06 1.14795e-05
6.06812e-06 8.96774e-06 1.31148e-05
5.76749e-06 6.1075e-06 1.17369e-05
8.35908e-06 8.02128e-06 1.34935e-05
8.1066e-06 5.19588e-06 1.25018e-05
1.09553e-05 7.0979e-06 1.41485e-05
1.07472e-05 4.32331e-06 1.35006e-05
8.53156e-06 1.10388e-05 1.44624e-05
7.93861e-06 2.64405e-06 1.17287e-05
1.06473e-05 1.73741e-06 1.31055e-05
7.9496e-06 3.58802e-07 1.14569e-05
1.08077e-05 -7.59203e-07 1.31256e-05
8.11258e-06 -1.93803e-06 1.17104e-05
1.10996e-05 -3.31325e-06 1.34854e-05
8.47073e-06 -4.4245e-06 1.24455e-05
1.15051e-05 -6.0036e-06 1.41109e-05
8.95664e-06 -7.13896e-06 1.34296e-05
6.14823e-06 -5.49505e-06 1.16426e-05
6.64529e-06 -8.30185e-06 1.30197e-05
4.10567e-06 -6.58927e-06 1.13122e-05
4.52389e-06 -9.55201e-06 1.29898e-05
2.24255e-06 -7.8592e-06 1.15987e-05
2.48513e-06 -1.10032e-05 1.33525e-05
2.25314e-07 -9.37479e-06 1.2355e-05
3.30048e-07 -1.27713e-05 1.40354e-05
-1.91567e-06 -1.1152e-05 1.33785e-05
-1.84128e-06 -7.92253e-06 1.15835e-05
-4.1684e-06 -9.87603e-06 1.30865e-05
-3.81438e-06 -6.73127e-06 1.13184e-05
-6.34638e-06 -8.66306e-06 1.31008e-05
-5.89198e-06 -5.69867e-06 1.16297e-05
-8.50074e-06 -7.43669e-06 1.33812e-05
-8.16851e-06 -4.72861e-06 1.241e-05
-1.1097e-05 -6.40354e-06 1.40715e-05
-4.37219e-06 -1.31248e-05 1.44353e-05
-1.08101e-05 -3.65112e-06 1.34407e-05
7.227e-06 -1.13741e-05 1.42746e-05
-7.7426e-06 1.98291e-06 1.14943e-05
-1.32177e-05 1.03518e-06 1.42125e-05
1.72932e-06 1.50846e-05 1.49539e-05
1.37697e-05 4.62296e-07 1.43894e-05
1.38449e-05 6.10085e-06 1.49334e-05
-9.69525e-06 1.01975e-05 1.45342e-05
-5.41662e-06 -3.19801e-06 1.01834e-05
-1.1715e-05 -9.29846e-06 1.48909e-05
1.18838e-05 -8.76128e-06 1.47888e-05
1.47836e-05 -7.47451e-06 1.5405e-05
-1.39614e-05 -5.24453e-06 1.48633e-05
2.79615e-06 -1.45179e-05 1.47979e-05
4.24605e-07 -1.65014e-05 1.53994e-05
3.51883e-06 4.39743e-06 9.58228e-06
1.40123e-05 9.30019e-06 1.54933e-05
1.79329e-05 8.14595e-06 1.63022e-05
-1.56773e-05 1.13967e-05 1.62352e-05
-1.09422e-06 1.67711e-05 1.5497e-05
1.90706e-06 1.9624e-05 1.63126e-05
-2.09211e-06 5.22066e-06 9.59878e-06
5.55456e-06 -7.84691e-07 9.59533e-06
3.58635e-06 -3.68397e-06 9.0831e-06
-1.77984e-06 -5.17915e-06 9.45077e-06
-2.24712e-05 -1.10121e-05 1.74758e-05
-1.88004e-05 -9.24252e-06 1.66527e-05
2.11502e-05 1.41663e-05 1.75071e-05
2.07561e-05 -1.43191e-05 1.74371e-05
-1.76473e-06 -2.54494e-05 1.75124e-05
-1.68225e-06 2.54134e-05 1.75171e-05
1.77151e-05 -1.19083e-05 1.66888e-05
2.06481e-05 -1.07523e-05 1.71176e-05
3.77606e-06 -1.89874e-05 1.61411e-05
7.686e-07 -2.03482e-05 1.64845e-05
-1.94073e-05 -1.26519e-05 1.71447e-05
-1.37328e-05 -2.30721e-06 1.44736e-05
-1.65947e-05 -3.70189e-06 1.54793e-05
-1.03771e-05 -1.09652e-06 1.29536e-05
2.44547e-05 1.10741e-05 1.76531e-05
2.55002e-05 -1.24047e-05 1.78496e-05
2.64939e-06 2.67289e-05 1.7662e-05
2.52113e-06 -2.64165e-05 1.76309e-05
3.33976e-06 -2.30346e-05 1.70307e-05
-2.05413e-06 -1.83221e-05 1.59526e-05
4.05941e-06 2.37941e-05 1.7132e-05
2.26167e-05 8.38033e-06 1.71209e-05
4.61414e-06 1.73154e-05 1.5729e-05
1.44287e-05 -1.3121e-05 1.61391e-05
-1.57896e-05 -1.0986e-05 1.62162e-05
-1.68018e-05 -3.81478e-07 1.53791e-05
1.7308e-05 4.68807e-06 1.57274e-05
6.55274e-08 -6.38802e-06 1.02687e-05
1.7419e-06 -4.84899e-06 9.0936e-06
5.85112e-06 -2.93584e-06 1.03794e-05
-2.14467e-05 3.75102e-06 1.64606e-05
5.73004e-06 -1.62765e-05 1.55094e-05
9.08456e-06 -1.75012e-05 1.59993e-05
1.75742e-05 1.1883e-05 1.66739e-05
1.39959e-05 -1.63842e-05 1.6403e-05
1.07413e-05 -1.37906e-05 1.55518e-05
-3.54836e-06 -4.22065e-06 9.50193e-06
5.3997e-06 1.13862e-06 9.50021e-06
5.21863e-06 3.22323e-06 1.00485e-05
-1.74986e-06 -2.83574e-05 1.78783e-05
1.89226e-06 5.29947e-06 9.58562e-06
-1.13838e-07 6.10568e-06 1.004e-05
-3.78533e-06 4.12819e-06 9.57957e-06
-5.6233e-06 3.03452e-06 1.02865e-05
-5.16602e-06 1.04079e-06 9.21473e-06
-7.5281e-06 -6.17465e-08 1.11738e-05
-4.33482e-06 -8.10361e-07 8.38287e-06
-3.1089e-06 1.87252e-06 7.37495e-06
-2.20837e-05 -3.60826e-06 1.65175e-05
2.34087e-05 -1.56895e-05 1.78375e-05
-1.50735e-06 2.11703e-05 1.66836e-05
2.12642e-05 -8.45313e-08 1.62275e-05
1.76242e-05 -1.64701e-06 1.55832e-05
1.73498e-05 -4.94228e-06 1.57724e-05
2.1894e-05 -7.45205e-06 1.69152e-05
-2.31846e-05 -1.4256e-05 1.78341e-05
1.73267e-05 1.64908e-06 1.55103e-05
-1.73407e-06 2.84759e-05 1.78955e-05
-4.22115e-07 3.68379e-06 7.49621e-06
2.37744e-05 1.57438e-05 1.7886e-05
-1.74994e-05 1.56439e-05 1.69765e-05
-1.06275e-05 -1.84683e-05 1.62568e-05
-1.01008e-05 -1.4344e-05 1.55734e-05
-7.50868e-06 -1.60968e-05 1.56238e-05
-7.32296e-06 -2.01229e-05 1.6397e-05
-1.07057e-05 1.85375e-05 1.62685e-05
-1.03486e-05 1.43858e-05 1.56211e-05
-7.77351e-06 2.04949e-05 1.6446e-05
-4.25347e-06 1.86119e-05 1.60547e-05
1.0761e-05 1.83477e-05 1.62279e-05
1.38934e-05 1.69369e-05 1.64327e-05
1.40436e-05 1.29744e-05 1.6053e-05
-7.36246e-06 1.62903e-05 1.56402e-05
1.05264e-05 1.45488e-05 1.56469e-05
7.74968e-06 1.60943e-05 1.56157e-05
-3.11678e-06 -1.89896e-06 7.39408e-06
-7.25853e-06 -1.24235e-05 1.46269e-05
3.00895e-06 4.03643e-08 6.60178e-06
4.87316e-06 1.35244e-05 1.46198e-05
1.40777e-05 -2.26066e-06 1.45722e-05
-1.72918e-05 -1.52184e-05 1.69471e-05
-1.73686e-05 2.42061e-06 1.55996e-05
-1.22062e-05 8.913e-06 1.49452e-05
-7.70652e-06 -2.29278e-06 1.15561e-05
-1.24513e-05 1.1814e-05 1.55417e-05
-1.42751e-07 -3.75461e-06 7.5551e-06
2.73051e-06 2.27231e-06 7.25282e-06
-2.00411e-06 -1.46522e-05 1.48097e-05
9.36622e-06 -1.00695e-05 1.43911e-05
1.38624e-05 3.1582e-06 1.45678e-05
-7.34094e-06 1.12007e-05 1.4262e-05
4.99782e-06 -1.27764e-05 1.4371e-05
1.10332e-05 1.04318e-05 1.49214e-05
-3.59688e-06 1.46871e-05 1.49097e-05
-4.63602e-06 -1.66189e-05 1.55506e-05
-1.95093e-05 1.28939e-05 1.71629e-05
-2.31294e-05 1.48597e-05 1.78449e-05
-1.29065e-05 -1.26876e-05 1.58143e-05
3.76119e-06 -1.58629e-06 7.90793e-06
1.76457e-06 2.92258e-06 7.0853e-06
-9.23161e-06 -1.06108e-05 1.45335e-05
1.72792e-06 -2.82344e-06 6.93192e-06
9.948e-07 2.41196e-05 1.731e-05
2.13704e-05 1.11951e-05 1.73002e-05
-1.46664e-05 -7.95435e-06 1.54871e-05
1.37097e-05 -4.78691e-06 1.46924e-05
-1.91008e-06 -2.17655e-05 1.68044e-05
1.80625e-05 -8.42009e-06 1.63424e-05
-1.66809e-05 -6.32935e-06 1.57842e-05
-4.32942e-07 -1.9225e-06 4.79906e-06
-1.80556e-06 2.99575e-06 7.17806e-06
-2.50546e-05 -1.29832e-05 1.79237e-05
-2.51298e-05 -1.45088e-05 1.80035e-05
-2.50478e-05 1.30351e-05 1.79075e-05
-2.51206e-05 1.46515e-05 1.79836e-05
-1.64862e-06 -3.12517e-06 7.2108e-06
6.32873e-06 1.13698e-05 1.40783e-05
5.33742e-07 -2.40888e-05 1.73038e-05
-5.22828e-07 1.80971e-06 4.64557e-06
7.40838e-06 -1.43455e-05 1.51542e-05
2.33054e-05 -1.32108e-05 1.77303e-05
2.36353e-05 -1.05388e-05 1.74924e-05
1.19899e-05 -1.82132e-05 1.62951e-05
1.47319e-05 -1.01479e-05 1.57973e-05
-1.00283e-05 1.00137e-06 1.27562e-05
-1.74018e-06 -8.15979e-07 4.72403e-06
7.69144e-07 3.70874e-06 7.57409e-06
2.34331e-06 -1.99736e-06 6.5561e-06
2.0159e-05 5.8986e-06 1.64554e-05
5.07064e-06 2.05985e-05 1.64978e-05
3.42123e-07 -2.7683e-05 1.78555e-05
-1.73139e-06 7.09178e-07 4.60688e-06
-3.21184e-06 6.23111e-07 6.82499e-06
3.57759e-06 1.47557e-06 7.63758e-06
4.99236e-07 2.83268e-05 1.79287e-05
2.47629e-05 1.37356e-05 1.79199e-05
-2.03307e-05 1.55375e-05 1.74306e-05
1.17882e-06 1.3646e-06 4.4604e-06
-2.0642e-05 -1.573e-05 1.75292e-05
-1.90013e-05 -2.32249e-06 1.5948e-05
-1.95615e-05 -5.58571e-06 1.6334e-05
9.05775e-07 -3.24809e-06 7.00697e-06
-4.36652e-06 -1.97917e-05 1.63236e-05
-7.93828e-06 1.38361e-05 1.51029e-05
1.16586e-06 -1.30431e-06 4.33982e-06
1.19359e-05 -1.12297e-05 1.5294e-05
6.13367e-06 -2.26988e-05 1.68222e-05
-1.4524e-05 1.43571e-05 1.63254e-05
7.93007e-06 1.33229e-05 1.49498e-05
1.79384e-06 8.58823e-07 -4.55279e-06
1.73797e-06 -8.25188e-07 -4.46133e-06
4.31992e-07 1.84979e-06 -4.49565e-06
4.36136e-07 -1.78079e-06 -4.3566e-06
-1.84765e-06 2.09656e-08 -4.42289e-06
-1.12319e-06 -1.30899e-06 -4.15149e-06
-1.15931e-06 1.30691e-06 -4.20028e-06
-2.25156e-05 -7.28862e-06 -1.70015e-05
-2.21989e-05 7.37251e-06 -1.69702e-05
-4.8609e-06 2.29012e-05 -1.69386e-05
-4.85841e-06 -2.31343e-05 -1.69655e-05
1.74233e-05 1.56372e-05 -1.69314e-05
1.75709e-05 -1.55382e-05 -1.69407e-05
2.10761e-05 3.16432e-06 -1.63261e-05
-1.39549e-05 1.71533e-05 -1.64801e-05
-1.35929e-05 -1.67432e-05 -1.64116e-05
7.76873e-06 1.98219e-05 -1.63329e-05
7.68572e-06 -2.03124e-05 -1.64042e-05
2.14749e-05 -3.44421e-06 -1.64019e-05
-2.11053e-05 6.58818e-09 -1.62484e-05
-2.24228e-05 1.1001e-05 -1.74551e-05
-1.87531e-05 9.25578e-06 -1.66287e-05
-1.79849e-05 5.79616e-06 -1.6038e-05
-1.49857e-05 7.44922e-06 -1.5488e-05
-1.42262e-05 4.30824e-06 -1.48313e-05
-1.1534e-05 5.74457e-06 -1.40963e-05
-1.08593e-05 3.0691e-06 -1.33751e-05
-8.40147e-06 4.30537e-06 -1.24057e-05
-9.05988e-06 7.01423e-06 -1.34579e-05
-6.20482e-06 5.48914e-06 -1.16903e-05
-6.82911e-06 8.25042e-06 -1.30814e-05
-4.28189e-06 6.67567e-06 -1.14518e-05
-4.80058e-06 9.61106e-06 -1.30954e-05
-2.40115e-06 7.99427e-06 -1.17243e-05
-2.81319e-06 1.11686e-05 -1.34764e-05
-4.75469e-07 9.59642e-06 -1.25024e-05
-7.38446e-07 1.29985e-05 -1.41433e-05
1.73128e-06 1.15191e-05 -1.35365e-05
-5.53536e-06 1.27019e-05 -1.44385e-05
1.68527e-06 8.22493e-06 -1.17489e-05
4.00465e-06 1.01221e-05 -1.31524e-05
3.70578e-06 7.09877e-06 -1.14795e-05
6.06812e-06 8.96774e-06 -1.31148e-05
5.76749e-06 6.1075e-06 -1.17369e-05
8.35908e-06 8.02128e-06 -1.34935e-05
8.1066e-06 5.19588e-06 -1.25018e-05
1.09553e-05 7.0979e-06 -1.41485e-05
1.07472e-05 4.32331e-06 -1.35006e-05
8.53156e-06 1.10388e-05 -1.44624e-05
7.93861e-06 2.64405e-06 -1.17287e-05
1.06473e-05 1.73741e-06 -1.31055e-05
7.9496e-06 3.58802e-07 -1.14569e-05
1.08077e-05 -7.59203e-07 -1.31256e-05
8.11258e-06 -1.93803e-06 -1.17104e-05
1.10996e-05 -3.31325e-06 -1.34854e-05
8.47073e-06 -4.4245e-06 -1.24455e-05
1.15051e-05 -6.0036e-06 -1.41109e-05
8.95664e-06 -7.13896e-06 -1.34296e-05
6.14823e-06 -5.49505e-06 -1.16426e-05
6.64529e-06 -8.30185e-06 -1.30197e-05
4.10567e-06 -6.58927e-06 -1.13122e-05
4.52389e-06 -9.55201e-06 -1.29898e-05
2.24255e-06 -7.8592e-06 -1.15987e-05
2.48513e-06 -1.10032e-05 -1.33525e-05
2.25314e-07 -9.37479e-06 -1.2355e-05
3.30048e-07 -1.27713e-05 -1.40354e-05
-1.91567e-06 -1.1152e-05 -1.33785e-05
-1.84128e-06 -7.92253e-06 -1.15835e-05
-4.1684e-06 -9.87603e-06 -1.30865e-05
-3.81438e-06 -6.73127e-06 -1.13184e-05
-6.34638e-06 -8.66306e-06 -1.31008e-05
-5.89198e-06 -5.69867e-06 -1.16297e-05
-8.50074e-06 -7.43669e-06 -1.33812e-05
-8.16851e-06 -4.72861e-06 -1.241e-05
-1.1097e-05 -6.40354e-06 -1.40715e-05
-4.37219e-06 -1.31248e-05 -1.44353e-05
-1.08101e-05 -3.65112e-06 -1.34407e-05
7.227e-06 -1.13741e-05 -1.42746e-05
-7.7426e-06 1.98291e-06 -1.14943e-05
-1.32177e-05 1.03518e-06 -1.42125e-05
1.72932e-06 1.50846e-05 -1.49539e-05
1.37697e-05 4.62296e-07 -1.43894e-05
1.38449e-05 6.10085e-06 -1.49334e-05
-9.69525e-06 1.01975e-05 -1.45342e-05
-5.41662e-06 -3.19801e-06 -1.01834e-05
-1.1715e-05 -9.29846e-06 -1.48909e-05
1.18838e-05 -8.76128e-06 -1.47888e-05
1.47836e-05 -7.47451e-06 -1.5405e-05
-1.39614e-05 -5.24453e-06 -1.48633e-05
2.79615e-06 -1.45179e-05 -1.47979e-05
4.24605e-07 -1.65014e-05 -1.53994e-05
3.51883e-06 4.39743e-06 -9.58228e-06
1.40123e-05 9.30019e-06 -1.54933e-05
1.79329e-05 8.14595e-06 -1.63022e-05
-1.56773e-05 1.13967e-05 -1.62352e-05
-1.09422e-06 1.67711e-05 -1.5497e-05
1.90706e-06 1.9624e-05 -1.63126e-05
-2.09211e-06 5.22066e-06 -9.59878e-06
5.55456e-06 -7.84691e-07 -9.59533e-06
3.58635e-06 -3.68397e-06 -9.0831e-06
-1.77984e-06 -5.17915e-06 -9.45077e-06
-2.24712e-05 -1.10121e-05 -1.74758e-05
-1.88004e-05 -9.24252e-06 -1.66527e-05
2.11502e-05 1.41663e-05 -1.75071e-05
2.07561e-05 -1.43191e-05 -1.74371e-05
-1.76473e-06 -2.54494e-05 -1.75124e-05
-1.68225e-06 2.54134e-05 -1.75171e-05
1.77151e-05 -1.19083e-05 -1.66888e-05
2.06481e-05 -1.07523e-05 -1.71176e-05
3.77606e-06 -1.89874e-05 -1.61411e-05
7.686e-07 -2.03482e-05 -1.64845e-05
-1.94073e-05 -1.26519e-05 -1.71447e-05
-1.37328e-05 -2.30721e-06 -1.44736e-05
-1.65947e-05 -3.70189e-06 -1.54793e-05
-1.03771e-05 -1.09652e-06 -1.29536e-05
2.44547e-05 1.10741e-05 -1.76531e-05
2.55002e-05 -1.24047e-05 -1.78496e-05
2.64939e-06 2.67289e-05 -1.7662e-05
2.52113e-06 -2.64165e-05 -1.76309e-05
3.33976e-06 -2.30346e-05 -1.70307e-05
-2.05413e-06 -1.83221e-05 -1.59526e-05
4.05941e-06 2.37941e-05 -1.7132e-05
2.26167e-05 8.38033e-06 -1.71209e-05
4.61414e-06 1.73154e-05 -1.5729e-05
1.44287e-05 -1.3121e-05 -1.61391e-05
-1.57896e-05 -1.0986e-05 -1.62162e-05
-1.68018e-05 -3.81478e-07 -1.53791e-05
1.7308e-05 4.68807e-06 -1.57274e-05
6.55274e-08 -6.38802e-06 -1.02687e-05
1.7419e-06 -4.84899e-06 -9.0936e-06
5.85112e-06 -2.93584e-06 -1.03794e-05
-2.14467e-05 3.75102e-06 -1.64606e-05
5.73004e-06 -1.62765e-05 -1.55094e-05
9.08456e-06 -1.75012e-05 -1.59993e-05
1.75742e-05 1.1883e-05 -1.66739e-05
1.39959e-05 -1.63842e-05 -1.6403e-05
1.07413e-05 -1.37906e-05 -1.55518e-05
-3.54836e-06 -4.22065e-06 -9.50193e-06
5.3997e-06 1.13862e-06 -9.50021e-06
5.21863e-06 3.22323e-06 -1.00485e-05
-1.74986e-06 -2.83574e-05 -1.78783e-05
1.89226e-06 5.29947e-06 -9.58562e-06
-1.13838e-07 6.10568e-06 -1.004e-05
-3.78533e-06 4.12819e-06 -9.57957e-06
-5.6233e-06 3.03452e-06 -1.02865e-05
-5.16602e-06 1.04079e-06 -9.21473e-06
-7.5281e-06 -6.17465e-08 -1.11738e-05
-4.33482e-06 -8.10361e-07 -8.38287e-06
-3.1089e-06 1.87252e-06 -7.37495e-06
-2.20837e-05 -3.60826e-06 -1.65175e-05
2.34087e-05 -1.56895e-05 -1.78375e-05
-1.50735e-06 2.11703e-05 -1.66836e-05
2.12642e-05 -8.45313e-08 -1.62275e-05
1.76242e-05 -1.64701e-06 -1.55832e-05
1.73498e-05 -4.94228e-06 -1.57724e-05
2.1894e-05 -7.45205e-06 -1.69152e-05
-2.31846e-05 -1.4256e-05 -1.78341e-05
1.73267e-05 1.64908e-06 -1.55103e-05
-1.73407e-06 2.84759e-05 -1.78955e-05