# vtk DataFile Version 3.0
vtk output at time 50
ASCII
DATASET UNSTRUCTURED_GRID
POINTS 626 float
-3.68058e-05 0.000978749 0 3.68058e-05 0.000978749 0 -0.000829194 0.00052125 0 
-0.0008235 0.0005 0 -0.000866 0.0004575 0 -0.000866 -0.0004575 0 
-0.0008235 -0.0005 0 -0.000829194 -0.00052125 0 -3.68058e-05 -0.000978749 0 
3.68058e-05 -0.000978749 0 0.000829194 -0.00052125 0 0.000866 -0.0004575 0 
0.000866 0.0004575 0 0.000829194 0.00052125 0 8.5e-05 0 0 
-3.68058e-05 0.000978749 -0.001 3.68058e-05 0.000978749 -0.001 -0.000829194 0.00052125 -0.001 
-0.0008235 0.0005 -0.001 -0.000866 0.0004575 -0.001 -0.000866 -0.0004575 -0.001 
-0.0008235 -0.0005 -0.001 -0.000829194 -0.00052125 -0.001 -3.68058e-05 -0.000978749 -0.001 
3.68058e-05 -0.000978749 -0.001 0.000829194 -0.00052125 -0.001 0.000866 -0.0004575 -0.001 
0.000866 0.0004575 -0.001 0.000829194 0.00052125 -0.001 8.5e-05 0 -0.001 
8.46223e-17 0.0009575 0 -0.000715996 0.000586607 0 -0.000602797 0.000651965 0 
-0.000489599 0.000717321 0 -0.000376401 0.000782678 0 -0.000263202 0.000848036 0 
-0.000150004 0.000913393 0 -0.000835948 0.000469948 0 -0.000866 -0.000326786 0 
-0.000866 -0.000196071 0 -0.000866 -6.53571e-05 0 -0.000866 6.53571e-05 0 
-0.000866 0.000196071 0 -0.000866 0.000326786 0 -0.000835948 -0.000469948 0 
-0.000150004 -0.000913393 0 -0.000263202 -0.000848036 0 -0.000376401 -0.000782678 0 
-0.000489599 -0.000717321 0 -0.000602797 -0.000651965 0 -0.000715996 -0.000586607 0 
8.47648e-17 -0.0009575 0 0.000715996 -0.000586607 0 0.000602797 -0.000651965 0 
0.000489599 -0.000717321 0 0.000376401 -0.000782678 0 0.000263202 -0.000848036 0 
0.000150004 -0.000913393 0 0.000829194 -0.00047875 0 0.000866 0.000326786 0 
0.000866 0.000196071 0 0.000866 6.53571e-05 0 0.000866 -6.53571e-05 0 
0.000866 -0.000196071 0 0.000866 -0.000326786 0 0.000829194 0.00047875 0 
0.000150004 0.000913393 0 0.000263202 0.000848036 0 0.000376401 0.000782678 0 
0.000489599 0.000717321 0 0.000602797 0.000651965 0 0.000715996 0.000586607 0 
5.29966e-05 6.64557e-05 0 -1.89143e-05 8.28689e-05 0 -7.65824e-05 3.68801e-05 0 
-7.65824e-05 -3.68801e-05 0 -1.89143e-05 -8.28689e-05 0 5.29966e-05 -6.64557e-05 0 
8.46223e-17 0.0009575 -0.001 -0.000715996 0.000586607 -0.001 -0.000602797 0.000651965 -0.001 
-0.000489599 0.000717321 -0.001 -0.000376401 0.000782678 -0.001 -0.000263202 0.000848036 -0.001 
-0.000150004 0.000913393 -0.001 -0.000835948 0.000469948 -0.001 -0.000866 -0.000326786 -0.001 
-0.000866 -0.000196071 -0.001 -0.000866 -6.53571e-05 -0.001 -0.000866 6.53571e-05 -0.001 
-0.000866 0.000196071 -0.001 -0.000866 0.000326786 -0.001 -0.000835948 -0.000469948 -0.001 
-0.000150004 -0.000913393 -0.001 -0.000263202 -0.000848036 -0.001 -0.000376401 -0.000782678 -0.001 
-0.000489599 -0.000717321 -0.001 -0.000602797 -0.000651965 -0.001 -0.000715996 -0.000586607 -0.001 
8.47648e-17 -0.0009575 -0.001 0.000715996 -0.000586607 -0.001 0.000602797 -0.000651965 -0.001 
0.000489599 -0.000717321 -0.001 0.000376401 -0.000782678 -0.001 0.000263202 -0.000848036 -0.001 
0.000150004 -0.000913393 -0.001 0.000829194 -0.00047875 -0.001 0.000866 0.000326786 -0.001 
0.000866 0.000196071 -0.001 0.000866 6.53571e-05 -0.001 0.000866 -6.53571e-05 -0.001 
0.000866 -0.000196071 -0.001 0.000866 -0.000326786 -0.001 0.000829194 0.00047875 -0.001 
0.000150004 0.000913393 -0.001 0.000263202 0.000848036 -0.001 0.000376401 0.000782678 -0.001 
0.000489599 0.000717321 -0.001 0.000602797 0.000651965 -0.001 0.000715996 0.000586607 -0.001 
5.29966e-05 6.64557e-05 -0.001 -1.89143e-05 8.28689e-05 -0.001 -7.65824e-05 3.68801e-05 -0.001 
-7.65824e-05 -3.68801e-05 -0.001 -1.89143e-05 -8.28689e-05 -0.001 5.29966e-05 -6.64557e-05 -0.001 
0.000131234 6.38474e-05 0 0.00012964 -6.2443e-05 0 3.13827e-05 0.0001394 0 
3.12554e-05 -0.000136939 0 -0.000140461 8.25467e-19 0 -8.90565e-05 -0.000102707 0 
-9.04142e-05 0.000102872 0 -0.000765769 -0.00025965 0 -0.000756873 0.000262774 0 
-0.00015609 0.000787505 0 -0.000155807 -0.00079355 0 0.000605069 0.000528035 0 
0.000608694 -0.00052497 0 0.000744069 0.000116929 0 -0.000494418 0.000596218 0 
-0.000483866 -0.000584648 0 0.000269496 0.000702219 0 0.000263201 -0.000717324 0 
0.000754429 -0.000127825 0 -0.000748858 5.84659e-07 0 -0.000747838 0.000373886 0 
-0.0006542 0.000324842 0 -0.000645137 0.000210123 0 -0.000550884 0.000274171 0 
-0.000538857 0.000163195 0 -0.00045062 0.000224461 0 -0.000438393 0.000123907 0 
-0.000354088 0.000181668 0 -0.000363908 0.000282171 0 -0.000270361 0.000239477 0 
-0.000279138 0.000337653 0 -0.000188888 0.000294791 0 -0.000196448 0.000393271 0 
-0.000104767 0.000348259 0 -0.000113332 0.000449012 0 -2.01066e-05 0.000403223 0 
-2.89189e-05 0.000507105 0 6.9524e-05 0.000461596 0 -0.000213644 0.000490203 0 
7.33757e-05 0.000357726 0 0.000163331 0.00041299 0 0.000163359 0.000313022 0 
0.000248077 0.000366368 0 0.000250914 0.000265758 0 0.000335709 0.000322266 0 
0.000340555 0.000218148 0 0.000427299 0.000276717 0 0.000431508 0.000173093 0 
0.000328731 0.000425633 0 0.00034586 0.000114823 0 0.000435362 7.05241e-05 0 
0.000350892 1.5455e-05 0 0.000441547 -3.11896e-05 0 0.000353547 -8.47783e-05 0 
0.000445767 -0.000132964 0 0.000356135 -0.000186358 0 0.000449094 -0.000234674 0 
0.000359978 -0.000287876 0 0.00026856 -0.000240545 0 0.000271895 -0.000341045 0 
0.000181792 -0.00029305 0 0.00018533 -0.000392851 0 9.75701e-05 -0.00034483 0 
9.98764e-05 -0.000444884 0 8.75116e-06 -0.000396343 0 1.20916e-05 -0.000500496 0 
-7.83929e-05 -0.000449843 0 -8.1471e-05 -0.000347249 0 -0.000171566 -0.000403733 0 
-0.000169889 -0.000298891 0 -0.000259867 -0.000354132 0 -0.000257696 -0.000249137 0 
-0.00034313 -0.000299896 0 -0.000344514 -0.000199127 0 -0.000434309 -0.000250039 0 
-0.000169832 -0.000505815 0 -0.000435227 -0.000146227 0 0.000280331 -0.000442424 0 
-0.000340889 8.76793e-05 0 -0.000515252 4.06198e-05 0 6.50491e-05 0.000568253 0 
0.00053278 1.74743e-05 0 0.000522071 0.000229831 0 -0.00037162 0.000391659 0 
-0.000255272 -0.000150439 0 -0.000442893 -0.000350705 0 0.000450067 -0.000332559 0 
0.000545175 -0.000276306 0 -0.000527797 -0.000197598 0 0.000105306 -0.000551033 0 
1.45836e-05 -0.000609147 0 0.00017145 0.000214453 0 0.000515525 0.000341711 0 
0.000636086 0.000290368 0 -0.000558657 0.000404468 0 -4.01232e-05 0.000616718 0 
6.60192e-05 0.000696422 0 -0.000101806 0.0002546 0 0.000271142 -3.88908e-05 0 
0.000179455 -0.00018534 0 -8.79553e-05 -0.000254307 0 -0.000749267 -0.000373451 0 
-0.000655941 -0.000323397 0 0.000709746 0.000466718 0 0.000698426 -0.000473086 0 
-5.25801e-05 -0.00084886 0 -4.93005e-05 0.000848038 0 0.000617396 -0.000413362 0 
0.000702056 -0.000369817 0 0.000131459 -0.000679171 0 2.48171e-05 -0.000715924 0 
-0.000664217 -0.00042729 0 -0.000528828 -8.80444e-05 0 -0.000611101 -0.000136672 0 
-0.000426972 -4.45841e-05 0 0.000800669 0.000378216 0 0.000821144 -0.000415062 0 
7.2799e-05 0.00088254 0 6.81831e-05 -0.00087503 0 0.000104963 -0.000788946 0 
-7.40696e-05 -0.000660054 0 0.000126061 0.000809943 0 0.000764361 0.000295682 0 
0.000166862 0.000630623 0 0.000516462 -0.00046707 0 -0.000563585 -0.000389606 0 
-0.000622598 -1.40238e-05 0 0.000629891 0.000171529 0 2.5614e-06 -0.000299794 0 
8.6901e-05 -0.00024329 0 0.000272045 -0.000136982 0 -0.00075148 0.000138321 0 
0.000209366 -0.000599589 0 0.000324913 -0.000630055 0 0.000614044 0.00041245 0 
0.00049651 -0.000573327 0 0.000394822 -0.000507321 0 -0.000173714 -0.000206698 0 
0.000264897 5.63722e-05 0 0.000247997 0.000152811 0 -4.63327e-05 -0.000920208 0 
9.18688e-05 0.000258626 0 -5.54111e-06 0.000290558 0 -0.000184219 0.000201484 0 
-0.000263559 0.000142267 0 -0.000256427 5.13624e-05 0 -0.000336894 -2.06179e-06 0 
-0.000228499 -4.2388e-05 0 -0.00017589 0.000106626 0 -0.000769947 -0.000133367 0 
0.000767591 -0.000500293 0 -5.05874e-05 0.000737978 0 0.000754456 -3.51771e-06 0 
0.00064691 -6.15298e-05 0 0.000630483 -0.00018134 0 0.000749187 -0.000265543 0 
-0.000760805 -0.000462521 0 0.000638155 6.09315e-05 0 -4.46661e-05 0.000922995 0 
-2.37945e-05 0.000207237 0 0.000776979 0.000500181 0 -0.000605691 0.000527596 0 
-0.000377914 -0.000653727 0 -0.000372325 -0.000526022 0 -0.000275829 -0.000589621 0 
-0.000254285 -0.000710579 0 -0.000379307 0.000656222 0 -0.000379818 0.00052718 0 
-0.000266817 0.000721555 0 -0.000150544 0.000668174 0 0.000381963 0.00065079 0 
0.000493113 0.000590432 0 0.000505439 0.000463708 0 -0.000269094 0.000596608 0 
0.000385815 0.000532045 0 0.000283599 0.0005899 0 -0.000176405 -0.000108505 0 
-0.000278769 -0.000475415 0 0.000185395 2.33014e-06 0 0.000186773 0.000517571 0 
0.000540032 -8.68444e-05 0 -0.000600694 -0.000514877 0 -0.00063703 8.98033e-05 0 
-0.000459677 0.000335729 0 -0.000338836 -0.000100751 0 -0.000457327 0.000432721 0 
-8.72007e-06 -0.000210238 0 0.000156073 0.000129496 0 -7.70692e-05 -0.000555049 0 
0.00036091 -0.000389728 0 0.000531628 0.000120564 0 -0.000285451 0.000435562 0 
0.000192719 -0.000494604 0 0.00041642 0.00039368 0 -0.000135943 0.000554637 0 
-0.000170665 -0.000610079 0 -0.000666304 0.000434981 0 -0.000758736 0.000479231 0 
-0.000470189 -0.000458901 0 0.000203433 -8.59809e-05 0 0.000101846 0.000170114 0 
-0.00035513 -0.00040726 0 0.000100184 -0.000165831 0 2.96286e-05 0.00081537 0 
0.000720946 0.000381836 0 -0.000539809 -0.000292001 0 0.00052211 -0.000182426 0 
-6.41339e-05 -0.000753908 0 0.000638039 -0.000299861 0 -0.000605136 -0.000230182 0 
-3.41638e-05 -0.000145561 0 -0.000104037 0.000172396 0 -0.000808575 -0.00042774 0 
-0.000807207 -0.000465052 0 -0.00080817 0.000429771 0 -0.000806589 0.000469738 0 
-9.50634e-05 -0.000178909 0 0.000247777 0.000445058 0 1.48293e-05 -0.000814201 0 
-4.11555e-05 0.000140955 0 0.000276104 -0.000536845 0 0.000765969 -0.000436638 0 
0.000780871 -0.000362769 0 0.000424176 -0.000642018 0 0.00053413 -0.000368009 0 
-0.000416333 4.17911e-05 0 -0.000133891 -6.23822e-05 0 4.2574e-05 0.000206312 0 
[...]
POINT_DATA 626
VECTORS displacement float
-1.74392e-06 3.09601e-05 1.80576e-05
1.7356e-06 3.09791e-05 1.81027e-05
-2.59912e-05 1.69956e-05 1.80897e-05
-2.58458e-05 1.60358e-05 1.80543e-05
-2.77256e-05 1.39756e-05 1.80717e-05
-2.77185e-05 -1.4022e-05 1.80971e-05
-2.5817e-05 -1.6074e-05 1.81085e-05
-2.59874e-05 -1.70137e-05 1.81696e-05
-1.67738e-06 -3.09638e-05 1.8054e-05
1.75541e-06 -3.09654e-05 1.81045e-05
2.59486e-05 -1.69835e-05 1.80461e-05
2.77219e-05 -1.39396e-05 1.8046e-05
2.76774e-05 1.39923e-05 1.80943e-05
2.59199e-05 1.69958e-05 1.80487e-05
0 0 0
-1.74392e-06 3.09601e-05 -1.80576e-05
1.7356e-06 3.09791e-05 -1.81027e-05
-2.59912e-05 1.69956e-05 -1.80897e-05
-2.58458e-05 1.60358e-05 -1.80543e-05
-2.77256e-05 1.39756e-05 -1.80717e-05
-2.77185e-05 -1.4022e-05 -1.80971e-05
-2.5817e-05 -1.6074e-05 -1.81085e-05
-2.59874e-05 -1.70137e-05 -1.81696e-05
-1.67738e-06 -3.09638e-05 -1.8054e-05
1.75541e-06 -3.09654e-05 -1.81045e-05
2.59486e-05 -1.69835e-05 -1.80461e-05
2.77219e-05 -1.39396e-05 -1.8046e-05
2.76774e-05 1.39923e-05 -1.80943e-05
2.59199e-05 1.69958e-05 -1.80487e-05
0 0 0
2.48702e-08 3.01599e-05 1.80368e-05
-2.11454e-05 1.87157e-05 1.75526e-05
-1.72367e-05 1.98379e-05 1.6924e-05
-1.40103e-05 2.1059e-05 1.65583e-05
-1.12093e-05 2.26701e-05 1.65522e-05
-8.52557e-06 2.48385e-05 1.69046e-05
-5.56836e-06 2.76275e-05 1.75403e-05
-2.64547e-05 1.46819e-05 1.80361e-05
-2.6774e-05 -9.01396e-06 1.75803e-05
-2.58119e-05 -5.03704e-06 1.69292e-05
-2.52603e-05 -1.63674e-06 1.65748e-05
-2.52632e-05 1.60837e-06 1.65777e-05
-2.58041e-05 5.02442e-06 1.69274e-05
-2.67602e-05 8.98703e-06 1.75668e-05
-2.64416e-05 -1.47283e-05 1.80649e-05
-5.54162e-06 -2.7642e-05 1.75326e-05
-8.47809e-06 -2.48475e-05 1.69039e-05
-1.11725e-05 -2.26896e-05 1.65595e-05
-1.3974e-05 -2.1092e-05 1.65629e-05
-1.72191e-05 -1.98733e-05 1.69399e-05
-2.11389e-05 -1.87525e-05 1.75651e-05
8.98079e-08 -3.01447e-05 1.8032e-05
2.11288e-05 -1.86282e-05 1.75144e-05
1.72489e-05 -1.97663e-05 1.68761e-05
1.40372e-05 -2.1016e-05 1.6515e-05
1.12275e-05 -2.25983e-05 1.65495e-05
8.5827e-06 -2.47858e-05 1.68774e-05
5.6552e-06 -2.76322e-05 1.75379e-05
2.61294e-05 -1.50625e-05 1.8031e-05
2.67221e-05 8.94086e-06 1.75044e-05
2.57277e-05 5.05116e-06 1.69116e-05
2.52124e-05 1.62386e-06 1.65266e-05
2.52095e-05 -1.59996e-06 1.65249e-05
2.57563e-05 -4.99894e-06 1.68915e-05
2.67042e-05 -8.9196e-06 1.75126e-05
2.61124e-05 1.50636e-05 1.8028e-05
5.63365e-06 2.76236e-05 1.75125e-05
8.51008e-06 2.48125e-05 1.69144e-05
1.12195e-05 2.26463e-05 1.65328e-05
1.40079e-05 2.10269e-05 1.65281e-05
1.72259e-05 1.97976e-05 1.68883e-05
2.11197e-05 1.86378e-05 1.75283e-05
0 0 0
0 0 0
0 0 0
0 0 0
0 0 0
0 0 0
2.48702e-08 3.01599e-05 -1.80368e-05
-2.11454e-05 1.87157e-05 -1.75526e-05
-1.72367e-05 1.98379e-05 -1.6924e-05
-1.40103e-05 2.1059e-05 -1.65583e-05
-1.12093e-05 2.26701e-05 -1.65522e-05
-8.52557e-06 2.48385e-05 -1.69046e-05
-5.56836e-06 2.76275e-05 -1.75403e-05
-2.64547e-05 1.46819e-05 -1.80361e-05
-2.6774e-05 -9.01396e-06 -1.75803e-05
-2.58119e-05 -5.03704e-06 -1.69292e-05
-2.52603e-05 -1.63674e-06 -1.65748e-05
-2.52632e-05 1.60837e-06 -1.65777e-05
-2.58041e-05 5.02442e-06 -1.69274e-05
-2.67602e-05 8.98703e-06 -1.75668e-05
-2.64416e-05 -1.47283e-05 -1.80649e-05
-5.54162e-06 -2.7642e-05 -1.75326e-05
-8.47809e-06 -2.48475e-05 -1.69039e-05
-1.11725e-05 -2.26896e-05 -1.65595e-05
-1.3974e-05 -2.1092e-05 -1.65629e-05
-1.72191e-05 -1.98733e-05 -1.69399e-05
-2.11389e-05 -1.87525e-05 -1.75651e-05
8.98079e-08 -3.01447e-05 -1.8032e-05
2.11288e-05 -1.86282e-05 -1.75144e-05
1.72489e-05 -1.97663e-05 -1.68761e-05
1.40372e-05 -2.1016e-05 -1.6515e-05
1.12275e-05 -2.25983e-05 -1.65495e-05
8.5827e-06 -2.47858e-05 -1.68774e-05
5.6552e-06 -2.76322e-05 -1.75379e-05
2.61294e-05 -1.50625e-05 -1.8031e-05
2.67221e-05 8.94086e-06 -1.75044e-05
2.57277e-05 5.05116e-06 -1.69116e-05
2.52124e-05 1.62386e-06 -1.65266e-05
2.52095e-05 -1.59996e-06 -1.65249e-05
2.57563e-05 -4.99894e-06 -1.68915e-05
2.67042e-05 -8.9196e-06 -1.75126e-05
2.61124e-05 1.50636e-05 -1.8028e-05
5.63365e-06 2.76236e-05 -1.75125e-05
8.51008e-06 2.48125e-05 -1.69144e-05
1.12195e-05 2.26463e-05 -1.65328e-05
1.40079e-05 2.10269e-05 -1.65281e-05
1.72259e-05 1.97976e-05 -1.68883e-05
2.11197e-05 1.86378e-05 -1.75283e-05
0 0 0
0 0 0
0 0 0
0 0 0
0 0 0
0 0 0
1.79399e-06 8.58893e-07 4.55329e-06
1.73811e-06 -8.25255e-07 4.46182e-06
4.32027e-07 1.84994e-06 4.49614e-06
4.36172e-07 -1.78093e-06 4.35707e-06
-1.8478e-06 2.09678e-08 4.42336e-06
-1.12328e-06 -1.30909e-06 4.15194e-06
-1.1594e-06 1.30702e-06 4.20073e-06
-2.25179e-05 -7.28948e-06 1.7003e-05
-2.22012e-05 7.37337e-06 1.69717e-05
-4.86132e-06 2.29036e-05 1.69401e-05
-4.85882e-06 -2.31367e-05 1.6967e-05
1.74252e-05 1.56388e-05 1.69329e-05
1.75728e-05 -1.55397e-05 1.69422e-05
2.10784e-05 3.16471e-06 1.63277e-05
-1.39564e-05 1.71551e-05 1.64817e-05
-1.35944e-05 -1.6745e-05 1.64132e-05
7.76953e-06 1.98241e-05 1.63345e-05
7.6865e-06 -2.03147e-05 1.64058e-05
2.14772e-05 -3.44465e-06 1.64035e-05
-2.11076e-05 6.58827e-09 1.625e-05
-2.2425e-05 1.10021e-05 1.74565e-05
-1.8755e-05 9.25677e-06 1.66301e-05
-1.79868e-05 5.79681e-06 1.60395e-05
-1.49874e-05 7.45003e-06 1.54895e-05
-1.42277e-05 4.30871e-06 1.48329e-05
-1.15352e-05 5.74519e-06 1.40978e-05
-1.08605e-05 3.06943e-06 1.33765e-05
-8.40237e-06 4.30583e-06 1.24071e-05
-9.06087e-06 7.015e-06 1.34593e-05
-6.20548e-06 5.48972e-06 1.16916e-05
-6.82986e-06 8.25131e-06 1.30829e-05
-4.28234e-06 6.67637e-06 1.14531e-05
-4.80111e-06 9.61211e-06 1.30968e-05
-2.40141e-06 7.99511e-06 1.17256e-05
-2.8135e-06 1.11698e-05 1.34779e-05
-4.75523e-07 9.59744e-06 1.25038e-05
-7.38531e-07 1.29999e-05 1.41448e-05
1.73147e-06 1.15204e-05 1.3538e-05
-5.53598e-06 1.27033e-05 1.44401e-05
1.68545e-06 8.2258e-06 1.17502e-05
4.00509e-06 1.01232e-05 1.31539e-05
3.70616e-06 7.09952e-06 1.14808e-05
6.06878e-06 8.96872e-06 1.31163e-05
5.76809e-06 6.10815e-06 1.17382e-05
8.35999e-06 8.02216e-06 1.3495e-05
8.10747e-06 5.19644e-06 1.25032e-05
1.09565e-05 7.09868e-06 1.415e-05
1.07484e-05 4.32379e-06 1.35021e-05
8.5325e-06 1.104e-05 1.44639e-05
7.93945e-06 2.64433e-06 1.17301e-05
1.06484e-05 1.7376e-06 1.3107e-05
7.95044e-06 3.5884e-07 1.14582e-05
1.08089e-05 -7.59286e-07 1.31271e-05
8.11344e-06 -1.93823e-06 1.17118e-05
1.11008e-05 -3.31361e-06 1.34869e-05
8.47164e-06 -4.42498e-06 1.24469e-05
1.15063e-05 -6.00426e-06 1.41125e-05
8.95761e-06 -7.13974e-06 1.3431e-05
6.14888e-06 -5.49563e-06 1.16439e-05
6.64601e-06 -8.30276e-06 1.30212e-05
4.1061e-06 -6.58996e-06 1.13135e-05
4.52438e-06 -9.55305e-06 1.29912e-05
2.24279e-06 -7.86003e-06 1.16e-05
2.4854e-06 -1.10044e-05 1.33539e-05
2.25336e-07 -9.37579e-06 1.23564e-05
3.3008e-07 -1.27727e-05 1.40369e-05
-1.91588e-06 -1.11532e-05 1.338e-05
-1.84148e-06 -7.92337e-06 1.15848e-05
-4.16886e-06 -9.8771e-06 1.3088e-05
-3.81478e-06 -6.73198e-06 1.13197e-05
-6.34708e-06 -8.664e-06 1.31023e-05
-5.89261e-06 -5.69927e-06 1.16311e-05
-8.50167e-06 -7.43749e-06 1.33827e-05
-8.16938e-06 -4.72912e-06 1.24114e-05
-1.10982e-05 -6.40423e-06 1.4073e-05
-4.37267e-06 -1.31262e-05 1.44368e-05
-1.08113e-05 -3.65151e-06 1.34422e-05
7.2278e-06 -1.13754e-05 1.42761e-05
-7.74341e-06 1.98312e-06 1.14955e-05
-1.32192e-05 1.0353e-06 1.42141e-05
1.7295e-06 1.50863e-05 1.49554e-05
1.37713e-05 4.62349e-07 1.4391e-05
1.38464e-05 6.10152e-06 1.49349e-05
-9.69632e-06 1.01986e-05 1.45357e-05
-5.41717e-06 -3.19834e-06 1.01845e-05
-1.17163e-05 -9.29947e-06 1.48924e-05
1.18851e-05 -8.76224e-06 1.47903e-05
1.47852e-05 -7.47534e-06 1.54066e-05
-1.3963e-05 -5.24511e-06 1.48649e-05
2.79645e-06 -1.45195e-05 1.47994e-05
4.24643e-07 -1.65032e-05 1.5401e-05
3.51918e-06 4.39787e-06 9.58337e-06
1.40138e-05 9.3012e-06 1.54948e-05
1.79348e-05 8.14685e-06 1.63038e-05
-1.5679e-05 1.13979e-05 1.62367e-05
-1.09434e-06 1.6773e-05 1.54985e-05
1.90724e-06 1.96261e-05 1.63142e-05
-2.09232e-06 5.22118e-06 9.59986e-06
5.55512e-06 -7.84769e-07 9.59641e-06
3.5867e-06 -3.68433e-06 9.08412e-06
-1.78002e-06 -5.17967e-06 9.45184e-06
-2.24735e-05 -1.10132e-05 1.74772e-05
-1.88023e-05 -9.24351e-06 1.66542e-05
2.11524e-05 1.41677e-05 1.75085e-05
2.07582e-05 -1.43205e-05 1.74385e-05
-1.76485e-06 -2.54519e-05 1.75138e-05
-1.68236e-06 2.54159e-05 1.75185e-05
1.7717e-05 -1.19095e-05 1.66903e-05
2.06502e-05 -1.07535e-05 1.7119e-05
3.77644e-06 -1.89895e-05 1.61427e-05
7.68661e-07 -2.03504e-05 1.6486e-05
-1.94093e-05 -1.26532e-05 1.71461e-05
-1.37343e-05 -2.30747e-06 1.44751e-05
-1.65966e-05 -3.70231e-06 1.54809e-05
-1.03782e-05 -1.09664e-06 1.29551e-05
2.4457e-05 1.10753e-05 1.76545e-05
2.55025e-05 -1.24059e-05 1.78509e-05
2.64951e-06 2.67315e-05 1.76633e-05
2.52125e-06 -2.64191e-05 1.76322e-05
3.34002e-06 -2.3037e-05 1.70322e-05
-2.05435e-06 -1.83241e-05 1.59541e-05
4.05971e-06 2.37966e-05 1.71334e-05
2.2619e-05 8.38129e-06 1.71223e-05
4.61462e-06 1.73174e-05 1.57306e-05
1.44303e-05 -1.31224e-05 1.61406e-05
-1.57913e-05 -1.09872e-05 1.62177e-05
-1.68037e-05 -3.81523e-07 1.53807e-05
1.73099e-05 4.6886e-06 1.5729e-05
6.55323e-08 -6.38868e-06 1.02698e-05
1.74207e-06 -4.84946e-06 9.09463e-06
5.85171e-06 -2.93614e-06 1.03806e-05
-2.14491e-05 3.75148e-06 1.64621e-05
5.73066e-06 -1.62783e-05 1.5511e-05
9.08555e-06 -1.75031e-05 1.60009e-05
1.75761e-05 1.18843e-05 1.66754e-05
1.39975e-05 -1.63859e-05 1.64045e-05
1.07425e-05 -1.37922e-05 1.55535e-05
-3.54871e-06 -4.22107e-06 9.503e-06
5.40024e-06 1.13873e-06 9.50129e-06
5.21915e-06 3.22356e-06 1.00496e-05
-1.74992e-06 -2.83601e-05 1.78796e-05
1.89245e-06 5.3e-06 9.5867e-06
-1.13851e-07 6.1063e-06 1.00411e-05
-3.78571e-06 4.1286e-06 9.58065e-06
-5.62388e-06 3.03483e-06 1.02877e-05
-5.16654e-06 1.04089e-06 9.21577e-06
-7.52888e-06 -6.17532e-08 1.1175e-05
-4.33524e-06 -8.10438e-07 8.38381e-06
-3.10919e-06 1.8727e-06 7.37577e-06
-2.20861e-05 -3.60872e-06 1.65191e-05
2.34109e-05 -1.56908e-05 1.78388e-05
-1.5075e-06 2.11726e-05 1.66851e-05
2.12666e-05 -8.45421e-08 1.62291e-05
1.76262e-05 -1.6472e-06 1.55848e-05
1.73517e-05 -4.94284e-06 1.5774e-05
2.18963e-05 -7.45292e-06 1.69167e-05
-2.31868e-05 -1.42573e-05 1.78354e-05
1.73286e-05 1.64927e-06 1.55119e-05
-1.73413e-06 2.84786e-05 1.78968e-05
-4.22154e-07 3.68413e-06 7.49704e-06
2.37767e-05 1.57452e-05 1.78872e-05
-1.75013e-05 1.56455e-05 1.6978e-05
-1.06287e-05 -1.84704e-05 1.62584e-05
-1.01019e-05 -1.43456e-05 1.5575e-05
-7.50951e-06 -1.60986e-05 1.56254e-05
-7.32372e-06 -2.01251e-05 1.63986e-05
-1.07069e-05 1.85395e-05 1.62702e-05
-1.03498e-05 1.43874e-05 1.56227e-05
-7.77431e-06 2.04971e-05 1.64475e-05
-4.25391e-06 1.86139e-05 1.60562e-05
1.07622e-05 1.83497e-05 1.62296e-05
1.38949e-05 1.69387e-05 1.64343e-05
1.40452e-05 1.29758e-05 1.60545e-05
-7.36328e-06 1.62921e-05 1.56419e-05
1.05276e-05 1.45504e-05 1.56486e-05
7.75053e-06 1.60961e-05 1.56173e-05
-3.11707e-06 -1.89913e-06 7.3949e-06
-7.25934e-06 -1.24249e-05 1.46284e-05
3.00922e-06 4.0368e-08 6.60251e-06
4.87369e-06 1.35259e-05 1.46214e-05
1.40793e-05 -2.26092e-06 1.45737e-05
-1.72937e-05 -1.52199e-05 1.69486e-05
-1.73705e-05 2.42088e-06 1.56012e-05
-1.22075e-05 8.91397e-06 1.49467e-05
-7.70733e-06 -2.29302e-06 1.15574e-05
-1.24527e-05 1.18153e-05 1.55433e-05
-1.42765e-07 -3.75496e-06 7.55594e-06
2.73076e-06 2.27252e-06 7.25362e-06
-2.00433e-06 -1.46539e-05 1.48113e-05
9.36726e-06 -1.00706e-05 1.43926e-05
1.3864e-05 3.15856e-06 1.45694e-05
-7.34175e-06 1.1202e-05 1.42635e-05
4.99837e-06 -1.27778e-05 1.43725e-05
1.10344e-05 1.04329e-05 1.49229e-05
-3.59728e-06 1.46887e-05 1.49113e-05
-4.63653e-06 -1.66207e-05 1.55521e-05
-1.95113e-05 1.28951e-05 1.71643e-05
-2.31316e-05 1.4861e-05 1.78462e-05
-1.29079e-05 -1.2689e-05 1.58158e-05
3.76155e-06 -1.58644e-06 7.90881e-06
1.76473e-06 2.92285e-06 7.08609e-06
-9.23264e-06 -1.06119e-05 1.45351e-05
1.72807e-06 -2.8237e-06 6.93269e-06
9.94861e-07 2.4122e-05 1.73114e-05
2.13725e-05 1.11963e-05 1.73016e-05
-1.4668e-05 -7.95521e-06 1.54886e-05
1.37112e-05 -4.78744e-06 1.46939e-05
-1.91026e-06 -2.17678e-05 1.68059e-05
1.80645e-05 -8.42101e-06 1.63439e-05
-1.66827e-05 -6.33005e-06 1.57857e-05
-4.32979e-07 -1.92267e-06 4.79958e-06
-1.80572e-06 2.99602e-06 7.17886e-06
-2.50569e-05 -1.29845e-05 1.7925e-05
-2.5132e-05 -1.45101e-05 1.80048e-05
-2.50501e-05 1.30364e-05 1.79088e-05
-2.51229e-05 1.46528e-05 1.79848e-05
-1.64878e-06 -3.12545e-06 7.2116e-06
6.32942e-06 1.1371e-05 1.40798e-05
5.3377e-07 -2.40913e-05 1.73052e-05
-5.22873e-07 1.80987e-06 4.64608e-06
7.4092e-06 -1.43471e-05 1.51558e-05
2.33076e-05 -1.32121e-05 1.77316e-05
2.36376e-05 -1.054e-05 1.74938e-05
1.19913e-05 -1.82152e-05 1.62967e-05
1.47335e-05 -1.0149e-05 1.57989e-05
-1.00294e-05 1.00147e-06 1.27576e-05
-1.74032e-06 -8.16048e-07 4.72454e-06
7.69215e-07 3.70909e-06 7.57493e-06
2.34352e-06 -1.99754e-06 6.55683e-06
2.01611e-05 5.89928e-06 1.64569e-05
5.07112e-06 2.06007e-05 1.64993e-05
3.42127e-07 -2.76856e-05 1.78568e-05
-1.73154e-06 7.09237e-07 4.60738e-06
-3.21213e-06 6.23167e-07 6.82574e-06
3.57792e-06 1.47571e-06 7.63843e-06
4.99245e-07 2.83294e-05 1.793e-05
2.47652e-05 1.37369e-05 1.79212e-05
-2.03328e-05 1.55389e-05 1.7432e-05
1.17892e-06 1.36472e-06 4.46088e-06
-2.06442e-05 -1.57315e-05 1.75305e-05
-1.90034e-05 -2.32277e-06 1.59496e-05
-1.95636e-05 -5.58636e-06 1.63356e-05
9.05857e-07 -3.24839e-06 7.00775e-06
-4.36696e-06 -1.97939e-05 1.63252e-05
-7.93917e-06 1.38377e-05 1.51045e-05
1.16596e-06 -1.30442e-06 4.3403e-06
1.19372e-05 -1.1231e-05 1.52955e-05
6.1342e-06 -2.27013e-05 1.68237e-05
-1.45256e-05 1.43586e-05 1.6327e-05
7.93095e-06 1.33244e-05 1.49514e-05
1.79399e-06 8.58893e-07 -4.55329e-06
1.73811e-06 -8.25255e-07 -4.46182e-06
4.32027e-07 1.84994e-06 -4.49614e-06
4.36172e-07 -1.78093e-06 -4.35707e-06
-1.8478e-06 2.09678e-08 -4.42336e-06
-1.12328e-06 -1.30909e-06 -4.15194e-06
-1.1594e-06 1.30702e-06 -4.20073e-06
-2.25179e-05 -7.28948e-06 -1.7003e-05
-2.22012e-05 7.37337e-06 -1.69717e-05
-4.86132e-06 2.29036e-05 -1.69401e-05
-4.85882e-06 -2.31367e-05 -1.6967e-05
1.74252e-05 1.56388e-05 -1.69329e-05
1.75728e-05 -1.55397e-05 -1.69422e-05
2.10784e-05 3.16471e-06 -1.63277e-05
-1.39564e-05 1.71551e-05 -1.64817e-05
-1.35944e-05 -1.6745e-05 -1.64132e-05
7.76953e-06 1.98241e-05 -1.63345e-05
7.6865e-06 -2.03147e-05 -1.64058e-05
2.14772e-05 -3.44465e-06 -1.64035e-05
-2.11076e-05 6.58827e-09 -1.625e-05
-2.2425e-05 1.10021e-05 -1.74565e-05
-1.8755e-05 9.25677e-06 -1.66301e-05
-1.79868e-05 5.79681e-06 -1.60395e-05
-1.49874e-05 7.45003e-06 -1.54895e-05
-1.42277e-05 4.30871e-06 -1.48329e-05
-1.15352e-05 5.74519e-06 -1.40978e-05
-1.08605e-05 3.06943e-06 -1.33765e-05
-8.40237e-06 4.30583e-06 -1.24071e-05
-9.06087e-06 7.015e-06 -1.34593e-05
-6.20548e-06 5.48972e-06 -1.16916e-05
-6.82986e-06 8.25131e-06 -1.30829e-05
-4.28234e-06 6.67637e-06 -1.14531e-05
-4.80111e-06 9.61211e-06 -1.30968e-05
-2.40141e-06 7.99511e-06 -1.17256e-05
-2.8135e-06 1.11698e-05 -1.34779e-05
-4.75523e-07 9.59744e-06 -1.25038e-05
-7.38531e-07 1.29999e-05 -1.41448e-05
1.73147e-06 1.15204e-05 -1.3538e-05
-5.53598e-06 1.27033e-05 -1.44401e-05
1.68545e-06 8.2258e-06 -1.17502e-05
4.00509e-06 1.01232e-05 -1.31539e-05
3.70616e-06 7.09952e-06 -1.14808e-05
6.06878e-06 8.96872e-06 -1.31163e-05
5.76809e-06 6.10815e-06 -1.17382e-05
8.35999e-06 8.02216e-06 -1.3495e-05
8.10747e-06 5.19644e-06 -1.25032e-05
1.09565e-05 7.09868e-06 -1.415e-05
1.07484e-05 4.32379e-06 -1.35021e-05
8.5325e-06 1.104e-05 -1.44639e-05
7.93945e-06 2.64433e-06 -1.17301e-05
1.06484e-05 1.7376e-06 -1.3107e-05
7.95044e-06 3.5884e-07 -1.14582e-05
1.08089e-05 -7.59286e-07 -1.31271e-05
8.11344e-06 -1.93823e-06 -1.17118e-05
1.11008e-05 -3.31361e-06 -1.34869e-05
8.47164e-06 -4.42498e-06 -1.24469e-05
1.15063e-05 -6.00426e-06 -1.41125e-05
8.95761e-06 -7.13974e-06 -1.3431e-05
6.14888e-06 -5.49563e-06 -1.16439e-05
6.64601e-06 -8.30276e-06 -1.30212e-05
4.1061e-06 -6.58996e-06 -1.13135e-05
4.52438e-06 -9.55305e-06 -1.29912e-05
2.24279e-06 -7.86003e-06 -1.16e-05
2.4854e-06 -1.10044e-05 -1.33539e-05
2.25336e-07 -9.37579e-06 -1.23564e-05
3.3008e-07 -1.27727e-05 -1.40369e-05
-1.91588e-06 -1.11532e-05 -1.338e-05
-1.84148e-06 -7.92337e-06 -1.15848e-05
-4.16886e-06 -9.8771e-06 -1.3088e-05
-3.81478e-06 -6.73198e-06 -1.13197e-05
-6.34708e-06 -8.664e-06 -1.31023e-05
-5.89261e-06 -5.69927e-06 -1.16311e-05
-8.50167e-06 -7.43749e-06 -1.33827e-05
-8.16938e-06 -4.72912e-06 -1.24114e-05
-1.10982e-05 -6.40423e-06 -1.4073e-05
-4.37267e-06 -1.31262e-05 -1.44368e-05
-1.08113e-05 -3.65151e-06 -1.34422e-05
7.2278e-06 -1.13754e-05 -1.42761e-05
-7.74341e-06 1.98312e-06 -1.14955e-05
-1.32192e-05 1.0353e-06 -1.42141e-05
1.7295e-06 1.50863e-05 -1.49554e-05
1.37713e-05 4.62349e-07 -1.4391e-05
1.38464e-05 6.10152e-06 -1.49349e-05
-9.69632e-06 1.01986e-05 -1.45357e-05
-5.41717e-06 -3.19834e-06 -1.01845e-05
-1.17163e-05 -9.29947e-06 -1.48924e-05
1.18851e-05 -8.76224e-06 -1.47903e-05
1.47852e-05 -7.47534e-06 -1.54066e-05
-1.3963e-05 -5.24511e-06 -1.48649e-05
2.79645e-06 -1.45195e-05 -1.47994e-05
4.24643e-07 -1.65032e-05 -1.5401e-05
3.51918e-06 4.39787e-06 -9.58337e-06
1.40138e-05 9.3012e-06 -1.54948e-05
1.79348e-05 8.14685e-06 -1.63038e-05
-1.5679e-05 1.13979e-05 -1.62367e-05
-1.09434e-06 1.6773e-05 -1.54985e-05
1.90724e-06 1.96261e-05 -1.63142e-05
-2.09232e-06 5.22118e-06 -9.59986e-06
5.55512e-06 -7.84769e-07 -9.59641e-06
3.5867e-06 -3.68433e-06 -9.08412e-06
-1.78002e-06 -5.17967e-06 -9.45184e-06
-2.24735e-05 -1.10132e-05 -1.74772e-05
-1.88023e-05 -9.24351e-06 -1.66542e-05
2.11524e-05 1.41677e-05 -1.75085e-05
2.07582e-05 -1.43205e-05 -1.74385e-05
-1.76485e-06 -2.54519e-05 -1.75138e-05
-1.68236e-06 2.54159e-05 -1.75185e-05
1.7717e-05 -1.19095e-05 -1.66903e-05
2.06502e-05 -1.07535e-05 -1.7119e-05
3.77644e-06 -1.89895e-05 -1.61427e-05
7.68661e-07 -2.03504e-05 -1.6486e-05
-1.94093e-05 -1.26532e-05 -1.71461e-05
-1.37343e-05 -2.30747e-06 -1.44751e-05
-1.65966e-05 -3.70231e-06 -1.54809e-05
-1.03782e-05 -1.09664e-06 -1.29551e-05
2.4457e-05 1.10753e-05 -1.76545e-05
2.55025e-05 -1.24059e-05 -1.78509e-05
2.64951e-06 2.67315e-05 -1.76633e-05
2.52125e-06 -2.64191e-05 -1.76322e-05
3.34002e-06 -2.3037e-05 -1.70322e-05
-2.05435e-06 -1.83241e-05 -1.59541e-05
4.05971e-06 2.37966e-05 -1.71334e-05
2.2619e-05 8.38129e-06 -1.71223e-05
4.61462e-06 1.73174e-05 -1.57306e-05
1.44303e-05 -1.31224e-05 -1.61406e-05
-1.57913e-05 -1.09872e-05 -1.62177e-05
-1.68037e-05 -3.81523e-07 -1.53807e-05
1.73099e-05 4.6886e-06 -1.5729e-05
6.55323e-08 -6.38868e-06 -1.02698e-05
1.74207e-06 -4.84946e-06 -9.09463e-06
5.85171e-06 -2.93614e-06 -1.03806e-05
-2.14491e-05 3.75148e-06 -1.64621e-05
5.73066e-06 -1.62783e-05 -1.5511e-05
9.08555e-06 -1.75031e-05 -1.60009e-05
1.75761e-05 1.18843e-05 -1.66754e-05
1.39975e-05 -1.63859e-05 -1.64045e-05
1.07425e-05 -1.37922e-05 -1.55535e-05
-3.54871e-06 -4.22107e-06 -9.503e-06
5.40024e-06 1.13873e-06 -9.50129e-06
5.21915e-06 3.22356e-06 -1.00496e-05
-1.74992e-06 -2.83601e-05 -1.78796e-05
1.89245e-06 5.3e-06 -9.5867e-06
-1.13851e-07 6.1063e-06 -1.00411e-05
-3.78571e-06 4.1286e-06 -9.58065e-06
-5.62388e-06 3.03483e-06 -1.02877e-05
-5.16654e-06 1.04089e-06 -9.21577e-06
-7.52888e-06 -6.17532e-08 -1.1175e-05
-4.33524e-06 -8.10438e-07 -8.38381e-06
-3.10919e-06 1.8727e-06 -7.37577e-06
-2.20861e-05 -3.60872e-06 -1.65191e-05
2.34109e-05 -1.56908e-05 -1.78388e-05
-1.5075e-06 2.11726e-05 -1.66851e-05
2.12666e-05 -8.45421e-08 -1.62291e-05
1.76262e-05 -1.6472e-06 -1.55848e-05
1.73517e-05 -4.94284e-06 -1.5774e-05
2.18963e-05 -7.45292e-06 -1.69167e-05
-2.31868e-05 -1.42573e-05 -1.78354e-05
1.73286e-05 1.64927e-06 -1.55119e-05
-1.73413e-06 2.84786e-05 -1.78968e-05
-4.22154e-07 3.68413e-06 -7.49704e-06