# vtk DataFile Version 3.0
vtk output at time 130
ASCII
DATASET UNSTRUCTURED_GRID
POINTS 626 float
-3.68058e-05 0.000978749 0 3.68058e-05 0.000978749 0 -0.000829194 0.00052125 0 
-0.0008235 0.0005 0 -0.000866 0.0004575 0 -0.000866 -0.0004575 0 
-0.0008235 -0.0005 0 -0.000829194 -0.00052125 0 -3.68058e-05 -0.000978749 0 
3.68058e-05 -0.000978749 0 0.000829194 -0.00052125 0 0.000866 -0.0004575 0 
0.000866 0.0004575 0 0.000829194 0.00052125 0 8.5e-05 0 0 
-3.68058e-05 0.000978749 -0.001 3.68058e-05 0.000978749 -0.001 -0.000829194 0.00052125 -0.001 
-0.0008235 0.0005 -0.001 -0.000866 0.0004575 -0.001 -0.000866 -0.0004575 -0.001 
-0.0008235 -0.0005 -0.001 -0.000829194 -0.00052125 -0.001 -3.68058e-05 -0.000978749 -0.001 
3.68058e-05 -0.000978749 -0.001 0.000829194 -0.00052125 -0.001 0.000866 -0.0004575 -0.001 
0.000866 0.0004575 -0.001 0.000829194 0.00052125 -0.001 8.5e-05 0 -0.001 
8.46223e-17 0.0009575 0 -0.000715996 0.000586607 0 -0.000602797 0.000651965 0 
-0.000489599 0.000717321 0 -0.000376401 0.000782678 0 -0.000263202 0.000848036 0 
-0.000150004 0.000913393 0 -0.000835948 0.000469948 0 -0.000866 -0.000326786 0 
-0.000866 -0.000196071 0 -0.000866 -6.53571e-05 0 -0.000866 6.53571e-05 0 
-0.000866 0.000196071 0 -0.000866 0.000326786 0 -0.000835948 -0.000469948 0 
-0.000150004 -0.000913393 0 -0.000263202 -0.000848036 0 -0.000376401 -0.000782678 0 
-0.000489599 -0.000717321 0 -0.000602797 -0.000651965 0 -0.000715996 -0.000586607 0 
8.47648e-17 -0.0009575 0 0.000715996 -0.000586607 0 0.000602797 -0.000651965 0 
0.000489599 -0.000717321 0 0.000376401 -0.000782678 0 0.000263202 -0.000848036 0 
0.000150004 -0.000913393 0 0.000829194 -0.00047875 0 0.000866 0.000326786 0 
0.000866 0.000196071 0 0.000866 6.53571e-05 0 0.000866 -6.53571e-05 0 
0.000866 -0.000196071 0 0.000866 -0.000326786 0 0.000829194 0.00047875 0 
0.000150004 0.000913393 0 0.000263202 0.000848036 0 0.000376401 0.000782678 0 
0.000489599 0.000717321 0 0.000602797 0.000651965 0 0.000715996 0.000586607 0 
5.29966e-05 6.64557e-05 0 -1.89143e-05 8.28689e-05 0 -7.65824e-05 3.68801e-05 0 
-7.65824e-05 -3.68801e-05 0 -1.89143e-05 -8.28689e-05 0 5.29966e-05 -6.64557e-05 0 
8.46223e-17 0.0009575 -0.001 -0.000715996 0.000586607 -0.001 -0.000602797 0.000651965 -0.001 
-0.000489599 0.000717321 -0.001 -0.000376401 0.000782678 -0.001 -0.000263202 0.000848036 -0.001 
-0.000150004 0.000913393 -0.001 -0.000835948 0.000469948 -0.001 -0.000866 -0.000326786 -0.001 
-0.000866 -0.000196071 -0.001 -0.000866 -6.53571e-05 -0.001 -0.000866 6.53571e-05 -0.001 
-0.000866 0.000196071 -0.001 -0.000866 0.000326786 -0.001 -0.000835948 -0.000469948 -0.001 
-0.000150004 -0.000913393 -0.001 -0.000263202 -0.000848036 -0.001 -0.000376401 -0.000782678 -0.001 
-0.000489599 -0.000717321 -0.001 -0.000602797 -0.000651965 -0.001 -0.000715996 -0.000586607 -0.001 
8.47648e-17 -0.0009575 -0.001 0.000715996 -0.000586607 -0.001 0.000602797 -0.000651965 -0.001 
0.000489599 -0.000717321 -0.001 0.000376401 -0.000782678 -0.001 0.000263202 -0.000848036 -0.001 
0.000150004 -0.000913393 -0.001 0.000829194 -0.00047875 -0.001 0.000866 0.000326786 -0.001 
0.000866 0.000196071 -0.001 0.000866 6.53571e-05 -0.001 0.000866 -6.53571e-05 -0.001 
0.000866 -0.000196071 -0.001 0.000866 -0.000326786 -0.001 0.000829194 0.00047875 -0.001 
0.000150004 0.000913393 -0.001 0.000263202 0.000848036 -0.001 0.000376401 0.000782678 -0.001 
0.000489599 0.000717321 -0.001 0.000602797 0.000651965 -0.001 0.000715996 0.000586607 -0.001 
5.29966e-05 6.64557e-05 -0.001 -1.89143e-05 8.28689e-05 -0.001 -7.65824e-05 3.68801e-05 -0.001 
-7.65824e-05 -3.68801e-05 -0.001 -1.89143e-05 -8.28689e-05 -0.001 5.29966e-05 -6.64557e-05 -0.001 
0.000131234 6.38474e-05 0 0.00012964 -6.2443e-05 0 3.13827e-05 0.0001394 0 
3.12554e-05 -0.000136939 0 -0.000140461 8.25467e-19 0 -8.90565e-05 -0.000102707 0 
-9.04142e-05 0.000102872 0 -0.000765769 -0.00025965 0 -0.000756873 0.000262774 0 
-0.00015609 0.000787505 0 -0.000155807 -0.00079355 0 0.000605069 0.000528035 0 
0.000608694 -0.00052497 0 0.000744069 0.000116929 0 -0.000494418 0.000596218 0 
-0.000483866 -0.000584648 0 0.000269496 0.000702219 0 0.000263201 -0.000717324 0 
0.000754429 -0.000127825 0 -0.000748858 5.84659e-07 0 -0.000747838 0.000373886 0 
-0.0006542 0.000324842 0 -0.000645137 0.000210123 0 -0.000550884 0.000274171 0 
-0.000538857 0.000163195 0 -0.00045062 0.000224461 0 -0.000438393 0.000123907 0 
-0.000354088 0.000181668 0 -0.000363908 0.000282171 0 -0.000270361 0.000239477 0 
-0.000279138 0.000337653 0 -0.000188888 0.000294791 0 -0.000196448 0.000393271 0 
-0.000104767 0.000348259 0 -0.000113332 0.000449012 0 -2.01066e-05 0.000403223 0 
-2.89189e-05 0.000507105 0 6.9524e-05 0.000461596 0 -0.000213644 0.000490203 0 
7.33757e-05 0.000357726 0 0.000163331 0.00041299 0 0.000163359 0.000313022 0 
0.000248077 0.000366368 0 0.000250914 0.000265758 0 0.000335709 0.000322266 0 
0.000340555 0.000218148 0 0.000427299 0.000276717 0 0.000431508 0.000173093 0 
0.000328731 0.000425633 0 0.00034586 0.000114823 0 0.000435362 7.05241e-05 0 
0.000350892 1.5455e-05 0 0.000441547 -3.11896e-05 0 0.000353547 -8.47783e-05 0 
0.000445767 -0.000132964 0 0.000356135 -0.000186358 0 0.000449094 -0.000234674 0 
0.000359978 -0.000287876 0 0.00026856 -0.000240545 0 0.000271895 -0.000341045 0 
0.000181792 -0.00029305 0 0.00018533 -0.000392851 0 9.75701e-05 -0.00034483 0 
9.98764e-05 -0.000444884 0 8.75116e-06 -0.000396343 0 1.20916e-05 -0.000500496 0 
-7.83929e-05 -0.000449843 0 -8.1471e-05 -0.000347249 0 -0.000171566 -0.000403733 0 
-0.000169889 -0.000298891 0 -0.000259867 -0.000354132 0 -0.000257696 -0.000249137 0 
-0.00034313 -0.000299896 0 -0.000344514 -0.000199127 0 -0.000434309 -0.000250039 0 
-0.000169832 -0.000505815 0 -0.000435227 -0.000146227 0 0.000280331 -0.000442424 0 
-0.000340889 8.76793e-05 0 -0.000515252 4.06198e-05 0 6.50491e-05 0.000568253 0 
0.00053278 1.74743e-05 0 0.000522071 0.000229831 0 -0.00037162 0.000391659 0 
-0.000255272 -0.000150439 0 -0.000442893 -0.000350705 0 0.000450067 -0.000332559 0 
0.000545175 -0.000276306 0 -0.000527797 -0.000197598 0 0.000105306 -0.000551033 0 
1.45836e-05 -0.000609147 0 0.00017145 0.000214453 0 0.000515525 0.000341711 0 
0.000636086 0.000290368 0 -0.000558657 0.000404468 0 -4.01232e-05 0.000616718 0 
6.60192e-05 0.000696422 0 -0.000101806 0.0002546 0 0.000271142 -3.88908e-05 0 
0.000179455 -0.00018534 0 -8.79553e-05 -0.000254307 0 -0.000749267 -0.000373451 0 
-0.000655941 -0.000323397 0 0.000709746 0.000466718 0 0.000698426 -0.000473086 0 
-5.25801e-05 -0.00084886 0 -4.93005e-05 0.000848038 0 0.000617396 -0.000413362 0 
0.000702056 -0.000369817 0 0.000131459 -0.000679171 0 2.48171e-05 -0.000715924 0 
-0.000664217 -0.00042729 0 -0.000528828 -8.80444e-05 0 -0.000611101 -0.000136672 0 
-0.000426972 -4.45841e-05 0 0.000800669 0.000378216 0 0.000821144 -0.000415062 0 
7.2799e-05 0.00088254 0 6.81831e-05 -0.00087503 0 0.000104963 -0.000788946 0 
-7.40696e-05 -0.000660054 0 0.000126061 0.000809943 0 0.000764361 0.000295682 0 
0.000166862 0.000630623 0 0.000516462 -0.00046707 0 -0.000563585 -0.000389606 0 
-0.000622598 -1.40238e-05 0 0.000629891 0.000171529 0 2.5614e-06 -0.000299794 0 
8.6901e-05 -0.00024329 0 0.000272045 -0.000136982 0 -0.00075148 0.000138321 0 
0.000209366 -0.000599589 0 0.000324913 -0.000630055 0 0.000614044 0.00041245 0 
0.00049651 -0.000573327 0 0.000394822 -0.000507321 0 -0.000173714 -0.000206698 0 
0.000264897 5.63722e-05 0 0.000247997 0.000152811 0 -4.63327e-05 -0.000920208 0 
9.18688e-05 0.000258626 0 -5.54111e-06 0.000290558 0 -0.000184219 0.000201484 0 
-0.000263559 0.000142267 0 -0.000256427 5.13624e-05 0 -0.000336894 -2.06179e-06 0 
-0.000228499 -4.2388e-05 0 -0.00017589 0.000106626 0 -0.000769947 -0.000133367 0 
0.000767591 -0.000500293 0 -5.05874e-05 0.000737978 0 0.000754456 -3.51771e-06 0 
0.00064691 -6.15298e-05 0 0.000630483 -0.00018134 0 0.000749187 -0.000265543 0 
-0.000760805 -0.000462521 0 0.000638155 6.09315e-05 0 -4.46661e-05 0.000922995 0 
-2.37945e-05 0.000207237 0 0.000776979 0.000500181 0 -0.000605691 0.000527596 0 
-0.000377914 -0.000653727 0 -0.000372325 -0.000526022 0 -0.000275829 -0.000589621 0 
-0.000254285 -0.000710579 0 -0.000379307 0.000656222 0 -0.000379818 0.00052718 0 
-0.000266817 0.000721555 0 -0.000150544 0.000668174 0 0.000381963 0.00065079 0 
0.000493113 0.000590432 0 0.000505439 0.000463708 0 -0.000269094 0.000596608 0 
0.000385815 0.000532045 0 0.000283599 0.0005899 0 -0.000176405 -0.000108505 0 
-0.000278769 -0.000475415 0 0.000185395 2.33014e-06 0 0.000186773 0.000517571 0 
0.000540032 -8.68444e-05 0 -0.000600694 -0.000514877 0 -0.00063703 8.98033e-05 0 
-0.000459677 0.000335729 0 -0.000338836 -0.000100751 0 -0.000457327 0.000432721 0 
-8.72007e-06 -0.000210238 0 0.000156073 0.000129496 0 -7.70692e-05 -0.000555049 0 
0.00036091 -0.000389728 0 0.000531628 0.000120564 0 -0.000285451 0.000435562 0 
0.000192719 -0.000494604 0 0.00041642 0.00039368 0 -0.000135943 0.000554637 0 
-0.000170665 -0.000610079 0 -0.000666304 0.000434981 0 -0.000758736 0.000479231 0 
-0.000470189 -0.000458901 0 0.000203433 -8.59809e-05 0 0.000101846 0.000170114 0 
-0.00035513 -0.00040726 0 0.000100184 -0.000165831 0 2.96286e-05 0.00081537 0 
0.000720946 0.000381836 0 -0.000539809 -0.000292001 0 0.00052211 -0.000182426 0 
-6.41339e-05 -0.000753908 0 0.000638039 -0.000299861 0 -0.000605136 -0.000230182 0 
-3.41638e-05 -0.000145561 0 -0.000104037 0.000172396 0 -0.000808575 -0.00042774 0 
-0.000807207 -0.000465052 0 -0.00080817 0.000429771 0 -0.000806589 0.000469738 0 
-9.50634e-05 -0.000178909 0 0.000247777 0.000445058 0 1.48293e-05 -0.000814201 0 
-4.11555e-05 0.000140955 0 0.000276104 -0.000536845 0 0.000765969 -0.000436638 0 
0.000780871 -0.000362769 0 0.000424176 -0.000642018 0 0.00053413 -0.000368009 0 
-0.000416333 4.17911e-05 0 -0.000133891 -6.23822e-05 0 4.2574e-05 0.000206312 0 
[...]
POINT_DATA 626
VECTORS displacement float
-1.74394e-06 3.0956e-05 1.80557e-05
1.73564e-06 3.0975e-05 1.81008e-05
-2.59877e-05 1.69936e-05 1.80878e-05
-2.58423e-05 1.60338e-05 1.80524e-05
-2.7722e-05 1.39736e-05 1.80698e-05
-2.7715e-05 -1.40199e-05 1.80952e-05
-2.58134e-05 -1.60719e-05 1.81066e-05
-2.59839e-05 -1.70117e-05 1.81678e-05
-1.6774e-06 -3.09597e-05 1.80521e-05
1.75544e-06 -3.09613e-05 1.81026e-05
2.5945e-05 -1.69815e-05 1.80442e-05
2.77184e-05 -1.39375e-05 1.80441e-05
2.76738e-05 1.39902e-05 1.80924e-05
2.59163e-05 1.69938e-05 1.80468e-05
0 0 0
-1.74394e-06 3.0956e-05 -1.80557e-05
1.73564e-06 3.0975e-05 -1.81008e-05
-2.59877e-05 1.69936e-05 -1.80878e-05
-2.58423e-05 1.60338e-05 -1.80524e-05
-2.7722e-05 1.39736e-05 -1.80698e-05
-2.7715e-05 -1.40199e-05 -1.80952e-05
-2.58134e-05 -1.60719e-05 -1.81066e-05
-2.59839e-05 -1.70117e-05 -1.81678e-05
-1.6774e-06 -3.09597e-05 -1.80521e-05
1.75544e-06 -3.09613e-05 -1.81026e-05
2.5945e-05 -1.69815e-05 -1.80442e-05
2.77184e-05 -1.39375e-05 -1.80441e-05
2.76738e-05 1.39902e-05 -1.80924e-05
2.59163e-05 1.69938e-05 -1.80468e-05
0 0 0
2.48876e-08 3.01559e-05 1.80349e-05
-2.11419e-05 1.87133e-05 1.75505e-05
-1.72337e-05 1.98349e-05 1.69217e-05
-1.40079e-05 2.10555e-05 1.65559e-05
-1.12075e-05 2.26663e-05 1.65497e-05
-8.52449e-06 2.48344e-05 1.69022e-05
-5.56795e-06 2.76233e-05 1.75382e-05
-2.64512e-05 1.46799e-05 1.80342e-05
-2.67702e-05 -9.0122e-06 1.75782e-05
-2.58078e-05 -5.0359e-06 1.69268e-05
-2.52561e-05 -1.63635e-06 1.65723e-05
-2.5259e-05 1.60799e-06 1.65753e-05
-2.58e-05 5.02329e-06 1.6925e-05
-2.67564e-05 8.98528e-06 1.75647e-05
-2.64381e-05 -1.47262e-05 1.8063e-05
-5.54121e-06 -2.76378e-05 1.75304e-05
-8.47701e-06 -2.48434e-05 1.69015e-05
-1.11707e-05 -2.26857e-05 1.65571e-05
-1.39715e-05 -2.10886e-05 1.65605e-05
-1.72161e-05 -1.98703e-05 1.69375e-05
-2.11355e-05 -1.87501e-05 1.7563e-05
8.9831e-08 -3.01406e-05 1.80301e-05
2.11253e-05 -1.86258e-05 1.75122e-05
1.72458e-05 -1.97633e-05 1.68737e-05
1.40348e-05 -2.10125e-05 1.65125e-05
1.12257e-05 -2.25944e-05 1.6547e-05
8.58164e-06 -2.47816e-05 1.6875e-05
5.65482e-06 -2.7628e-05 1.75358e-05
2.61259e-05 -1.50604e-05 1.80291e-05
2.67183e-05 8.93908e-06 1.75023e-05
2.57236e-05 5.05002e-06 1.69092e-05
2.52082e-05 1.62347e-06 1.65241e-05
2.52053e-05 -1.59958e-06 1.65224e-05
2.57522e-05 -4.99781e-06 1.68892e-05
2.67003e-05 -8.91783e-06 1.75105e-05
2.61089e-05 1.50616e-05 1.80261e-05
5.63328e-06 2.76194e-05 1.75103e-05
8.50902e-06 2.48083e-05 1.69121e-05
1.12177e-05 2.26425e-05 1.65303e-05
1.40054e-05 2.10235e-05 1.65256e-05
1.72228e-05 1.97946e-05 1.68859e-05
2.11163e-05 1.86354e-05 1.75262e-05
0 0 0
0 0 0
0 0 0
0 0 0
0 0 0
0 0 0
2.48876e-08 3.01559e-05 -1.80349e-05
-2.11419e-05 1.87133e-05 -1.75505e-05
-1.72337e-05 1.98349e-05 -1.69217e-05
-1.40079e-05 2.10555e-05 -1.65559e-05
-1.12075e-05 2.26663e-05 -1.65497e-05
-8.52449e-06 2.48344e-05 -1.69022e-05
-5.56795e-06 2.76233e-05 -1.75382e-05
-2.64512e-05 1.46799e-05 -1.80342e-05
-2.67702e-05 -9.0122e-06 -1.75782e-05
-2.58078e-05 -5.0359e-06 -1.69268e-05
-2.52561e-05 -1.63635e-06 -1.65723e-05
-2.5259e-05 1.60799e-06 -1.65753e-05
-2.58e-05 5.02329e-06 -1.6925e-05
-2.67564e-05 8.98528e-06 -1.75647e-05
-2.64381e-05 -1.47262e-05 -1.8063e-05
-5.54121e-06 -2.76378e-05 -1.75304e-05
-8.47701e-06 -2.48434e-05 -1.69015e-05
-1.11707e-05 -2.26857e-05 -1.65571e-05
-1.39715e-05 -2.10886e-05 -1.65605e-05
-1.72161e-05 -1.98703e-05 -1.69375e-05
-2.11355e-05 -1.87501e-05 -1.7563e-05
8.9831e-08 -3.01406e-05 -1.80301e-05
2.11253e-05 -1.86258e-05 -1.75122e-05
1.72458e-05 -1.97633e-05 -1.68737e-05
1.40348e-05 -2.10125e-05 -1.65125e-05
1.12257e-05 -2.25944e-05 -1.6547e-05
8.58164e-06 -2.47816e-05 -1.6875e-05
5.65482e-06 -2.7628e-05 -1.75358e-05
2.61259e-05 -1.50604e-05 -1.80291e-05
2.67183e-05 8.93908e-06 -1.75023e-05
2.57236e-05 5.05002e-06 -1.69092e-05
2.52082e-05 1.62347e-06 -1.65241e-05
2.52053e-05 -1.59958e-06 -1.65224e-05
2.57522e-05 -4.99781e-06 -1.68892e-05
2.67003e-05 -8.91783e-06 -1.75105e-05
2.61089e-05 1.50616e-05 -1.80261e-05
5.63328e-06 2.76194e-05 -1.75103e-05
8.50902e-06 2.48083e-05 -1.69121e-05
1.12177e-05 2.26425e-05 -1.65303e-05
1.40054e-05 2.10235e-05 -1.65256e-05
1.72228e-05 1.97946e-05 -1.68859e-05
2.11163e-05 1.86354e-05 -1.75262e-05
0 0 0
0 0 0
0 0 0
0 0 0
0 0 0
0 0 0
1.79376e-06 8.58786e-07 4.55253e-06
1.7379e-06 -8.25152e-07 4.46108e-06
4.31973e-07 1.84971e-06 4.49539e-06
4.36118e-07 -1.78071e-06 4.35635e-06
-1.84757e-06 2.09644e-08 4.42263e-06
-1.12314e-06 -1.30893e-06 4.15125e-06
-1.15926e-06 1.30686e-06 4.20004e-06
-2.25144e-05 -7.28816e-06 1.70008e-05
-2.21977e-05 7.37205e-06 1.69694e-05
-4.86068e-06 2.28999e-05 1.69378e-05
-4.85819e-06 -2.3133e-05 1.69647e-05
1.74223e-05 1.56364e-05 1.69307e-05
1.75699e-05 -1.55373e-05 1.69399e-05
2.10748e-05 3.1641e-06 1.63253e-05
-1.3954e-05 1.71523e-05 1.64792e-05
-1.3592e-05 -1.67423e-05 1.64108e-05
7.7683e-06 1.98208e-05 1.63321e-05
7.68531e-06 -2.03112e-05 1.64034e-05
2.14736e-05 -3.44398e-06 1.6401e-05
-2.1104e-05 6.58814e-09 1.62475e-05
-2.24216e-05 1.10004e-05 1.74544e-05
-1.8752e-05 9.25525e-06 1.66279e-05
-1.79839e-05 5.79581e-06 1.60371e-05
-1.49849e-05 7.44879e-06 1.54872e-05
-1.42253e-05 4.30799e-06 1.48305e-05
-1.15333e-05 5.74424e-06 1.40955e-05
-1.08587e-05 3.06892e-06 1.33743e-05
-8.40099e-06 4.30513e-06 1.2405e-05
-9.05935e-06 7.01383e-06 1.34571e-05
-6.20447e-06 5.48883e-06 1.16896e-05
-6.82872e-06 8.24994e-06 1.30806e-05
-4.28165e-06 6.6753e-06 1.14511e-05
-4.8003e-06 9.61051e-06 1.30946e-05
-2.40101e-06 7.99382e-06 1.17236e-05
-2.81302e-06 1.11679e-05 1.34756e-05
-4.7544e-07 9.59587e-06 1.25016e-05
-7.38401e-07 1.29977e-05 1.41425e-05
1.73118e-06 1.15185e-05 1.35357e-05
-5.53503e-06 1.27012e-05 1.44377e-05
1.68518e-06 8.22446e-06 1.17482e-05
4.00442e-06 1.01215e-05 1.31516e-05
3.70557e-06 7.09837e-06 1.14789e-05
6.06777e-06 8.96722e-06 1.3114e-05
5.76716e-06 6.10715e-06 1.17362e-05
8.35859e-06 8.02081e-06 1.34927e-05
8.10614e-06 5.19558e-06 1.2501e-05
1.09547e-05 7.09749e-06 1.41477e-05
1.07466e-05 4.32306e-06 1.34998e-05
8.53105e-06 1.10382e-05 1.44615e-05
7.93816e-06 2.6439e-06 1.1728e-05
1.06467e-05 1.73731e-06 1.31047e-05
7.94915e-06 3.58782e-07 1.14562e-05
1.08071e-05 -7.59159e-07 1.31248e-05
8.11213e-06 -1.93792e-06 1.17097e-05
1.10989e-05 -3.31306e-06 1.34846e-05
8.47024e-06 -4.42425e-06 1.24447e-05
1.15044e-05 -6.00325e-06 1.41101e-05
8.95612e-06 -7.13855e-06 1.34288e-05
6.14789e-06 -5.49474e-06 1.16419e-05
6.6449e-06 -8.30137e-06 1.3019e-05
4.10545e-06 -6.5889e-06 1.13115e-05
4.52363e-06 -9.55145e-06 1.2989e-05
2.24243e-06 -7.85875e-06 1.1598e-05
2.48499e-06 -1.10026e-05 1.33517e-05
2.25303e-07 -9.37425e-06 1.23543e-05
3.30031e-07 -1.27706e-05 1.40346e-05
-1.91556e-06 -1.11514e-05 1.33777e-05
-1.84118e-06 -7.92209e-06 1.15828e-05
-4.16816e-06 -9.87546e-06 1.30858e-05
-3.81417e-06 -6.7309e-06 1.13177e-05
-6.34601e-06 -8.66256e-06 1.31e-05
-5.89165e-06 -5.69835e-06 1.1629e-05
-8.50025e-06 -7.43626e-06 1.33804e-05
-8.16804e-06 -4.72834e-06 1.24093e-05
-1.10963e-05 -6.40317e-06 1.40707e-05
-4.37193e-06 -1.3124e-05 1.44344e-05
-1.08095e-05 -3.65091e-06 1.344e-05
7.22658e-06 -1.13735e-05 1.42737e-05
-7.74217e-06 1.9828e-06 1.14936e-05
-1.3217e-05 1.03512e-06 1.42117e-05
1.72923e-06 1.50838e-05 1.4953e-05
1.37689e-05 4.62268e-07 1.43886e-05
1.3844e-05 6.10049e-06 1.49325e-05
-9.69468e-06 1.01969e-05 1.45333e-05
-5.41633e-06 -3.19784e-06 1.01827e-05
-1.17143e-05 -9.29792e-06 1.489e-05
1.18831e-05 -8.76077e-06 1.4788e-05
1.47827e-05 -7.47408e-06 1.54042e-05
-1.39606e-05 -5.24423e-06 1.48625e-05
2.796e-06 -1.45171e-05 1.4797e-05
4.24585e-07 -1.65005e-05 1.53986e-05
3.51864e-06 4.3972e-06 9.58171e-06
1.40115e-05 9.29965e-06 1.54924e-05
1.79319e-05 8.14548e-06 1.63014e-05
-1.56764e-05 1.1396e-05 1.62343e-05
-1.09416e-06 1.67702e-05 1.54962e-05
1.90697e-06 1.96228e-05 1.63118e-05
-2.09199e-06 5.22038e-06 9.5982e-06
5.55427e-06 -7.8465e-07 9.59475e-06
3.58616e-06 -3.68378e-06 9.08256e-06
-1.77974e-06 -5.17888e-06 9.45021e-06
-2.24701e-05 -1.10115e-05 1.74751e-05
-1.87993e-05 -9.242e-06 1.66519e-05
2.11491e-05 1.41656e-05 1.75064e-05
2.0755e-05 -1.43184e-05 1.74364e-05
-1.76467e-06 -2.5448e-05 1.75117e-05
-1.6822e-06 2.5412e-05 1.75164e-05
1.77141e-05 -1.19076e-05 1.6688e-05
2.0647e-05 -1.07517e-05 1.71168e-05
3.77587e-06 -1.89863e-05 1.61403e-05
7.68567e-07 -2.03471e-05 1.64837e-05
-1.94063e-05 -1.26513e-05 1.7144e-05
-1.3732e-05 -2.30707e-06 1.44727e-05
-1.65938e-05 -3.70167e-06 1.54784e-05
-1.03765e-05 -1.09645e-06 1.29529e-05
2.44534e-05 1.10735e-05 1.76524e-05
2.54989e-05 -1.2404e-05 1.78489e-05
2.64932e-06 2.67275e-05 1.76613e-05
2.52107e-06 -2.64151e-05 1.76301e-05
3.33962e-06 -2.30333e-05 1.70299e-05
-2.05402e-06 -1.8321e-05 1.59518e-05
4.05925e-06 2.37928e-05 1.71312e-05
2.26155e-05 8.37981e-06 1.71201e-05
4.61388e-06 1.73144e-05 1.57282e-05
1.44279e-05 -1.31203e-05 1.61383e-05
-1.57887e-05 -1.09854e-05 1.62154e-05
-1.68008e-05 -3.81454e-07 1.53782e-05
1.7307e-05 4.68778e-06 1.57265e-05
6.55248e-08 -6.38768e-06 1.02681e-05
1.74181e-06 -4.84873e-06 9.09306e-06
5.8508e-06 -2.93568e-06 1.03788e-05
-2.14455e-05 3.75077e-06 1.64597e-05
5.72971e-06 -1.62755e-05 1.55086e-05
9.08402e-06 -1.75001e-05 1.59984e-05
1.75732e-05 1.18824e-05 1.66731e-05
1.39951e-05 -1.63832e-05 1.64021e-05
1.07407e-05 -1.37898e-05 1.5551e-05
-3.54817e-06 -4.22043e-06 9.50136e-06
5.39942e-06 1.13856e-06 9.49964e-06
5.21834e-06 3.22306e-06 1.00479e-05
-1.74982e-06 -2.8356e-05 1.78776e-05
1.89216e-06 5.29919e-06 9.58505e-06
-1.13831e-07 6.10535e-06 1.00394e-05
-3.78513e-06 4.12797e-06 9.579e-06
-5.623e-06 3.03436e-06 1.02859e-05
-5.16575e-06 1.04073e-06 9.21418e-06
-7.52768e-06 -6.17429e-08 1.11731e-05
-4.3346e-06 -8.1032e-07 8.38237e-06
-3.10875e-06 1.87243e-06 7.37452e-06
-2.20825e-05 -3.60801e-06 1.65167e-05
2.34075e-05 -1.56887e-05 1.78368e-05
-1.50728e-06 2.11691e-05 1.66829e-05
2.1263e-05 -8.45256e-08 1.62266e-05
1.76232e-05 -1.64691e-06 1.55823e-05
1.73488e-05 -4.94198e-06 1.57715e-05
2.18928e-05 -7.45159e-06 1.69144e-05
-2.31834e-05 -1.42553e-05 1.78334e-05
1.73257e-05 1.64898e-06 1.55094e-05
-1.73403e-06 2.84745e-05 1.78948e-05
-4.22094e-07 3.68361e-06 7.49576e-06
2.37732e-05 1.57431e-05 1.78853e-05
-1.74984e-05 1.56431e-05 1.69758e-05
-1.06269e-05 -1.84672e-05 1.6256e-05
-1.01002e-05 -1.43432e-05 1.55726e-05
-7.50823e-06 -1.60958e-05 1.56229e-05
-7.32255e-06 -2.01217e-05 1.63962e-05
-1.07051e-05 1.85364e-05 1.62677e-05
-1.0348e-05 1.4385e-05 1.56202e-05
-7.77309e-06 2.04937e-05 1.64451e-05
-4.25324e-06 1.86108e-05 1.60538e-05
1.07604e-05 1.83466e-05 1.62271e-05
1.38925e-05 1.69359e-05 1.64319e-05
1.40428e-05 1.29737e-05 1.60521e-05
-7.36203e-06 1.62893e-05 1.56394e-05
1.05258e-05 1.45479e-05 1.56461e-05
7.74922e-06 1.60933e-05 1.56148e-05
-3.11663e-06 -1.89886e-06 7.39364e-06
-7.2581e-06 -1.24228e-05 1.4626e-05
3.00881e-06 4.03623e-08 6.60139e-06
4.87288e-06 1.35236e-05 1.46189e-05
1.40769e-05 -2.26053e-06 1.45713e-05
-1.72908e-05 -1.52176e-05 1.69463e-05
-1.73675e-05 2.42046e-06 1.55987e-05
-1.22055e-05 8.91248e-06 1.49443e-05
-7.70608e-06 -2.29265e-06 1.15554e-05
-1.24506e-05 1.18134e-05 1.55409e-05
-1.42743e-07 -3.75442e-06 7.55466e-06
2.73037e-06 2.2722e-06 7.25239e-06
-2.00399e-06 -1.46514e-05 1.48089e-05
9.36568e-06 -1.00689e-05 1.43903e-05
1.38616e-05 3.15801e-06 1.4567e-05
-7.3405e-06 1.12001e-05 1.42611e-05
4.99753e-06 -1.27756e-05 1.43701e-05
1.10326e-05 1.04312e-05 1.49205e-05
-3.59667e-06 1.46862e-05 1.49089e-05
-4.63576e-06 -1.66179e-05 1.55497e-05
-1.95082e-05 1.28932e-05 1.71621e-05
-2.31282e-05 1.48589e-05 1.78442e-05
-1.29058e-05 -1.26869e-05 1.58134e-05
3.761e-06 -1.58621e-06 7.90746e-06
1.76449e-06 2.92244e-06 7.08489e-06
-9.23107e-06 -1.06101e-05 1.45327e-05
1.72783e-06 -2.82331e-06 6.93151e-06
9.94767e-07 2.41183e-05 1.73093e-05
2.13692e-05 1.11945e-05 1.72995e-05
-1.46655e-05 -7.95389e-06 1.54862e-05
1.37089e-05 -4.78663e-06 1.46915e-05
-1.90999e-06 -2.17643e-05 1.68036e-05
1.80615e-05 -8.4196e-06 1.63416e-05
-1.668e-05 -6.32897e-06 1.57833e-05
-4.32922e-07 -1.92242e-06 4.79878e-06
-1.80547e-06 2.9956e-06 7.17764e-06
-2.50534e-05 -1.29826e-05 1.7923e-05
-2.51286e-05 -1.45081e-05 1.80029e-05
-2.50465e-05 1.30345e-05 1.79068e-05
-2.51194e-05 1.46508e-05 1.79829e-05
-1.64854e-06 -3.12501e-06 7.21038e-06
6.32836e-06 1.13691e-05 1.40775e-05
5.33727e-07 -2.40875e-05 1.73031e-05
-5.22804e-07 1.80963e-06 4.64531e-06
7.40794e-06 -1.43446e-05 1.51533e-05
2.33042e-05 -1.32101e-05 1.77296e-05
2.36341e-05 -1.05382e-05 1.74916e-05
1.19892e-05 -1.82121e-05 1.62942e-05
1.47311e-05 -1.01473e-05 1.57965e-05
-1.00277e-05 1.00131e-06 1.27555e-05
-1.7401e-06 -8.15943e-07 4.72376e-06
7.69106e-07 3.70856e-06 7.57364e-06
2.3432e-06 -1.99727e-06 6.55571e-06
2.01578e-05 5.89823e-06 1.64545e-05
5.07038e-06 2.05973e-05 1.64969e-05
3.4212e-07 -2.76816e-05 1.78548e-05
-1.73131e-06 7.09147e-07 4.60662e-06
-3.21168e-06 6.23081e-07 6.82459e-06
3.57741e-06 1.47549e-06 7.63712e-06
4.99231e-07 2.83254e-05 1.7928e-05
2.47617e-05 1.37349e-05 1.79192e-05
-2.03296e-05 1.55367e-05 1.74299e-05
1.17877e-06 1.36454e-06 4.46014e-06
-2.06409e-05 -1.57293e-05 1.75284e-05
-1.90001e-05 -2.32235e-06 1.59471e-05
-1.95604e-05 -5.58537e-06 1.63332e-05
9.05731e-07 -3.24793e-06 7.00656e-06
-4.36629e-06 -1.97906e-05 1.63228e-05
-7.93781e-06 1.38353e-05 1.5102e-05
1.16581e-06 -1.30425e-06 4.33957e-06
1.19352e-05 -1.12291e-05 1.52931e-05
6.13339e-06 -2.26975e-05 1.68214e-05
-1.45231e-05 1.43563e-05 1.63246e-05
7.9296e-06 1.33221e-05 1.49489e-05
1.79376e-06 8.58786e-07 -4.55253e-06
1.7379e-06 -8.25152e-07 -4.46108e-06
4.31973e-07 1.84971e-06 -4.49539e-06
4.36118e-07 -1.78071e-06 -4.35635e-06
-1.84757e-06 2.09644e-08 -4.42263e-06
-1.12314e-06 -1.30893e-06 -4.15125e-06
-1.15926e-06 1.30686e-06 -4.20004e-06
-2.25144e-05 -7.28816e-06 -1.70008e-05
-2.21977e-05 7.37205e-06 -1.69694e-05
-4.86068e-06 2.28999e-05 -1.69378e-05
-4.85819e-06 -2.3133e-05 -1.69647e-05
1.74223e-05 1.56364e-05 -1.69307e-05
1.75699e-05 -1.55373e-05 -1.69399e-05
2.10748e-05 3.1641e-06 -1.63253e-05
-1.3954e-05 1.71523e-05 -1.64792e-05
-1.3592e-05 -1.67423e-05 -1.64108e-05
7.7683e-06 1.98208e-05 -1.63321e-05
7.68531e-06 -2.03112e-05 -1.64034e-05
2.14736e-05 -3.44398e-06 -1.6401e-05
-2.1104e-05 6.58814e-09 -1.62475e-05
-2.24216e-05 1.10004e-05 -1.74544e-05
-1.8752e-05 9.25525e-06 -1.66279e-05
-1.79839e-05 5.79581e-06 -1.60371e-05
-1.49849e-05 7.44879e-06 -1.54872e-05
-1.42253e-05 4.30799e-06 -1.48305e-05
-1.15333e-05 5.74424e-06 -1.40955e-05
-1.08587e-05 3.06892e-06 -1.33743e-05
-8.40099e-06 4.30513e-06 -1.2405e-05
-9.05935e-06 7.01383e-06 -1.34571e-05
-6.20447e-06 5.48883e-06 -1.16896e-05
-6.82872e-06 8.24994e-06 -1.30806e-05
-4.28165e-06 6.6753e-06 -1.14511e-05
-4.8003e-06 9.61051e-06 -1.30946e-05
-2.40101e-06 7.99382e-06 -1.17236e-05
-2.81302e-06 1.11679e-05 -1.34756e-05
-4.7544e-07 9.59587e-06 -1.25016e-05
-7.38401e-07 1.29977e-05 -1.41425e-05
1.73118e-06 1.15185e-05 -1.35357e-05
-5.53503e-06 1.27012e-05 -1.44377e-05
1.68518e-06 8.22446e-06 -1.17482e-05
4.00442e-06 1.01215e-05 -1.31516e-05
3.70557e-06 7.09837e-06 -1.14789e-05
6.06777e-06 8.96722e-06 -1.3114e-05
5.76716e-06 6.10715e-06 -1.17362e-05
8.35859e-06 8.02081e-06 -1.34927e-05
8.10614e-06 5.19558e-06 -1.2501e-05
1.09547e-05 7.09749e-06 -1.41477e-05
1.07466e-05 4.32306e-06 -1.34998e-05
8.53105e-06 1.10382e-05 -1.44615e-05
7.93816e-06 2.6439e-06 -1.1728e-05
1.06467e-05 1.73731e-06 -1.31047e-05
7.94915e-06 3.58782e-07 -1.14562e-05
1.08071e-05 -7.59159e-07 -1.31248e-05
8.11213e-06 -1.93792e-06 -1.17097e-05
1.10989e-05 -3.31306e-06 -1.34846e-05
8.47024e-06 -4.42425e-06 -1.24447e-05
1.15044e-05 -6.00325e-06 -1.41101e-05
8.95612e-06 -7.13855e-06 -1.34288e-05
6.14789e-06 -5.49474e-06 -1.16419e-05
6.6449e-06 -8.30137e-06 -1.3019e-05
4.10545e-06 -6.5889e-06 -1.13115e-05
4.52363e-06 -9.55145e-06 -1.2989e-05
2.24243e-06 -7.85875e-06 -1.1598e-05
2.48499e-06 -1.10026e-05 -1.33517e-05
2.25303e-07 -9.37425e-06 -1.23543e-05
3.30031e-07 -1.27706e-05 -1.40346e-05
-1.91556e-06 -1.11514e-05 -1.33777e-05
-1.84118e-06 -7.92209e-06 -1.15828e-05
-4.16816e-06 -9.87546e-06 -1.30858e-05
-3.81417e-06 -6.7309e-06 -1.13177e-05
-6.34601e-06 -8.66256e-06 -1.31e-05
-5.89165e-06 -5.69835e-06 -1.1629e-05
-8.50025e-06 -7.43626e-06 -1.33804e-05
-8.16804e-06 -4.72834e-06 -1.24093e-05
-1.10963e-05 -6.40317e-06 -1.40707e-05
-4.37193e-06 -1.3124e-05 -1.44344e-05
-1.08095e-05 -3.65091e-06 -1.344e-05
7.22658e-06 -1.13735e-05 -1.42737e-05
-7.74217e-06 1.9828e-06 -1.14936e-05
-1.3217e-05 1.03512e-06 -1.42117e-05
1.72923e-06 1.50838e-05 -1.4953e-05
1.37689e-05 4.62268e-07 -1.43886e-05
1.3844e-05 6.10049e-06 -1.49325e-05
-9.69468e-06 1.01969e-05 -1.45333e-05
-5.41633e-06 -3.19784e-06 -1.01827e-05
-1.17143e-05 -9.29792e-06 -1.489e-05
1.18831e-05 -8.76077e-06 -1.4788e-05
1.47827e-05 -7.47408e-06 -1.54042e-05
-1.39606e-05 -5.24423e-06 -1.48625e-05
2.796e-06 -1.45171e-05 -1.4797e-05
4.24585e-07 -1.65005e-05 -1.53986e-05
3.51864e-06 4.3972e-06 -9.58171e-06
1.40115e-05 9.29965e-06 -1.54924e-05
1.79319e-05 8.14548e-06 -1.63014e-05
-1.56764e-05 1.1396e-05 -1.62343e-05
-1.09416e-06 1.67702e-05 -1.54962e-05
1.90697e-06 1.96228e-05 -1.63118e-05
-2.09199e-06 5.22038e-06 -9.5982e-06
5.55427e-06 -7.8465e-07 -9.59475e-06
3.58616e-06 -3.68378e-06 -9.08256e-06
-1.77974e-06 -5.17888e-06 -9.45021e-06
-2.24701e-05 -1.10115e-05 -1.74751e-05
-1.87993e-05 -9.242e-06 -1.66519e-05
2.11491e-05 1.41656e-05 -1.75064e-05
2.0755e-05 -1.43184e-05 -1.74364e-05
-1.76467e-06 -2.5448e-05 -1.75117e-05
-1.6822e-06 2.5412e-05 -1.75164e-05
1.77141e-05 -1.19076e-05 -1.6688e-05
2.0647e-05 -1.07517e-05 -1.71168e-05
3.77587e-06 -1.89863e-05 -1.61403e-05
7.68567e-07 -2.03471e-05 -1.64837e-05
-1.94063e-05 -1.26513e-05 -1.7144e-05
-1.3732e-05 -2.30707e-06 -1.44727e-05
-1.65938e-05 -3.70167e-06 -1.54784e-05
-1.03765e-05 -1.09645e-06 -1.29529e-05
2.44534e-05 1.10735e-05 -1.76524e-05
2.54989e-05 -1.2404e-05 -1.78489e-05
2.64932e-06 2.67275e-05 -1.76613e-05
2.52107e-06 -2.64151e-05 -1.76301e-05
3.33962e-06 -2.30333e-05 -1.70299e-05
-2.05402e-06 -1.8321e-05 -1.59518e-05
4.05925e-06 2.37928e-05 -1.71312e-05
2.26155e-05 8.37981e-06 -1.71201e-05
4.61388e-06 1.73144e-05 -1.57282e-05
1.44279e-05 -1.31203e-05 -1.61383e-05
-1.57887e-05 -1.09854e-05 -1.62154e-05
-1.68008e-05 -3.81454e-07 -1.53782e-05
1.7307e-05 4.68778e-06 -1.57265e-05
6.55248e-08 -6.38768e-06 -1.02681e-05
1.74181e-06 -4.84873e-06 -9.09306e-06
5.8508e-06 -2.93568e-06 -1.03788e-05
-2.14455e-05 3.75077e-06 -1.64597e-05
5.72971e-06 -1.62755e-05 -1.55086e-05
9.08402e-06 -1.75001e-05 -1.59984e-05
1.75732e-05 1.18824e-05 -1.66731e-05
1.39951e-05 -1.63832e-05 -1.64021e-05
1.07407e-05 -1.37898e-05 -1.5551e-05
-3.54817e-06 -4.22043e-06 -9.50136e-06
5.39942e-06 1.13856e-06 -9.49964e-06
5.21834e-06 3.22306e-06 -1.00479e-05
-1.74982e-06 -2.8356e-05 -1.78776e-05
1.89216e-06 5.29919e-06 -9.58505e-06
-1.13831e-07 6.10535e-06 -1.00394e-05
-3.78513e-06 4.12797e-06 -9.579e-06
-5.623e-06 3.03436e-06 -1.02859e-05
-5.16575e-06 1.04073e-06 -9.21418e-06
-7.52768e-06 -6.17429e-08 -1.11731e-05
-4.3346e-06 -8.1032e-07 -8.38237e-06
-3.10875e-06 1.87243e-06 -7.37452e-06
-2.20825e-05 -3.60801e-06 -1.65167e-05
2.34075e-05 -1.56887e-05 -1.78368e-05
-1.50728e-06 2.11691e-05 -1.66829e-05
2.1263e-05 -8.45256e-08 -1.62266e-05
1.76232e-05 -1.64691e-06 -1.55823e-05
1.73488e-05 -4.94198e-06 -1.57715e-05
2.18928e-05 -7.45159e-06 -1.69144e-05
-2.31834e-05 -1.42553e-05 -1.78334e-05
1.73257e-05 1.64898e-06 -1.55094e-05
-1.73403e-06 2.84745e-05 -1.78948e-05
-4.22094e-07 3.68361e-06 -7.49576e-06