# vtk DataFile Version 3.0
vtk output at time 290
ASCII
DATASET UNSTRUCTURED_GRID
POINTS 626 float
-3.68058e-05 0.000978749 0 3.68058e-05 0.000978749 0 -0.000829194 0.00052125 0 
-0.0008235 0.0005 0 -0.000866 0.0004575 0 -0.000866 -0.0004575 0 
-0.0008235 -0.0005 0 -0.000829194 -0.00052125 0 -3.68058e-05 -0.000978749 0 
3.68058e-05 -0.000978749 0 0.000829194 -0.00052125 0 0.000866 -0.0004575 0 
0.000866 0.0004575 0 0.000829194 0.00052125 0 8.5e-05 0 0 
-3.68058e-05 0.000978749 -0.001 3.68058e-05 0.000978749 -0.001 -0.000829194 0.00052125 -0.001 
-0.0008235 0.0005 -0.001 -0.000866 0.0004575 -0.001 -0.000866 -0.0004575 -0.001 
-0.0008235 -0.0005 -0.001 -0.000829194 -0.00052125 -0.001 -3.68058e-05 -0.000978749 -0.001 
3.68058e-05 -0.000978749 -0.001 0.000829194 -0.00052125 -0.001 0.000866 -0.0004575 -0.001 
0.000866 0.0004575 -0.001 0.000829194 0.00052125 -0.001 8.5e-05 0 -0.001 
8.46223e-17 0.0009575 0 -0.000715996 0.000586607 0 -0.000602797 0.000651965 0 
-0.000489599 0.000717321 0 -0.000376401 0.000782678 0 -0.000263202 0.000848036 0 
-0.000150004 0.000913393 0 -0.000835948 0.000469948 0 -0.000866 -0.000326786 0 
-0.000866 -0.000196071 0 -0.000866 -6.53571e-05 0 -0.000866 6.53571e-05 0 
-0.000866 0.000196071 0 -0.000866 0.000326786 0 -0.000835948 -0.000469948 0 
-0.000150004 -0.000913393 0 -0.000263202 -0.000848036 0 -0.000376401 -0.000782678 0 
-0.000489599 -0.000717321 0 -0.000602797 -0.000651965 0 -0.000715996 -0.000586607 0 
8.47648e-17 -0.0009575 0 0.000715996 -0.000586607 0 0.000602797 -0.000651965 0 
0.000489599 -0.000717321 0 0.000376401 -0.000782678 0 0.000263202 -0.000848036 0 
0.000150004 -0.000913393 0 0.000829194 -0.00047875 0 0.000866 0.000326786 0 
0.000866 0.000196071 0 0.000866 6.53571e-05 0 0.000866 -6.53571e-05 0 
0.000866 -0.000196071 0 0.000866 -0.000326786 0 0.000829194 0.00047875 0 
0.000150004 0.000913393 0 0.000263202 0.000848036 0 0.000376401 0.000782678 0 
0.000489599 0.000717321 0 0.000602797 0.000651965 0 0.000715996 0.000586607 0 
5.29966e-05 6.64557e-05 0 -1.89143e-05 8.28689e-05 0 -7.65824e-05 3.68801e-05 0 
-7.65824e-05 -3.68801e-05 0 -1.89143e-05 -8.28689e-05 0 5.29966e-05 -6.64557e-05 0 
8.46223e-17 0.0009575 -0.001 -0.000715996 0.000586607 -0.001 -0.000602797 0.000651965 -0.001 
-0.000489599 0.000717321 -0.001 -0.000376401 0.000782678 -0.001 -0.000263202 0.000848036 -0.001 
-0.000150004 0.000913393 -0.001 -0.000835948 0.000469948 -0.001 -0.000866 -0.000326786 -0.001 
-0.000866 -0.000196071 -0.001 -0.000866 -6.53571e-05 -0.001 -0.000866 6.53571e-05 -0.001 
-0.000866 0.000196071 -0.001 -0.000866 0.000326786 -0.001 -0.000835948 -0.000469948 -0.001 
-0.000150004 -0.000913393 -0.001 -0.000263202 -0.000848036 -0.001 -0.000376401 -0.000782678 -0.001 
-0.000489599 -0.000717321 -0.001 -0.000602797 -0.000651965 -0.001 -0.000715996 -0.000586607 -0.001 
8.47648e-17 -0.0009575 -0.001 0.000715996 -0.000586607 -0.001 0.000602797 -0.000651965 -0.001 
0.000489599 -0.000717321 -0.001 0.000376401 -0.000782678 -0.001 0.000263202 -0.000848036 -0.001 
0.000150004 -0.000913393 -0.001 0.000829194 -0.00047875 -0.001 0.000866 0.000326786 -0.001 
0.000866 0.000196071 -0.001 0.000866 6.53571e-05 -0.001 0.000866 -6.53571e-05 -0.001 
0.000866 -0.000196071 -0.001 0.000866 -0.000326786 -0.001 0.000829194 0.00047875 -0.001 
0.000150004 0.000913393 -0.001 0.000263202 0.000848036 -0.001 0.000376401 0.000782678 -0.001 
0.000489599 0.000717321 -0.001 0.000602797 0.000651965 -0.001 0.000715996 0.000586607 -0.001 
5.29966e-05 6.64557e-05 -0.001 -1.89143e-05 8.28689e-05 -0.001 -7.65824e-05 3.68801e-05 -0.001 
-7.65824e-05 -3.68801e-05 -0.001 -1.89143e-05 -8.28689e-05 -0.001 5.29966e-05 -6.64557e-05 -0.001 
0.000131234 6.38474e-05 0 0.00012964 -6.2443e-05 0 3.13827e-05 0.0001394 0 
3.12554e-05 -0.000136939 0 -0.000140461 8.25467e-19 0 -8.90565e-05 -0.000102707 0 
-9.04142e-05 0.000102872 0 -0.000765769 -0.00025965 0 -0.000756873 0.000262774 0 
-0.00015609 0.000787505 0 -0.000155807 -0.00079355 0 0.000605069 0.000528035 0 
0.000608694 -0.00052497 0 0.000744069 0.000116929 0 -0.000494418 0.000596218 0 
-0.000483866 -0.000584648 0 0.000269496 0.000702219 0 0.000263201 -0.000717324 0 
0.000754429 -0.000127825 0 -0.000748858 5.84659e-07 0 -0.000747838 0.000373886 0 
-0.0006542 0.000324842 0 -0.000645137 0.000210123 0 -0.000550884 0.000274171 0 
-0.000538857 0.000163195 0 -0.00045062 0.000224461 0 -0.000438393 0.000123907 0 
-0.000354088 0.000181668 0 -0.000363908 0.000282171 0 -0.000270361 0.000239477 0 
-0.000279138 0.000337653 0 -0.000188888 0.000294791 0 -0.000196448 0.000393271 0 
-0.000104767 0.000348259 0 -0.000113332 0.000449012 0 -2.01066e-05 0.000403223 0 
-2.89189e-05 0.000507105 0 6.9524e-05 0.000461596 0 -0.000213644 0.000490203 0 
7.33757e-05 0.000357726 0 0.000163331 0.00041299 0 0.000163359 0.000313022 0 
0.000248077 0.000366368 0 0.000250914 0.000265758 0 0.000335709 0.000322266 0 
0.000340555 0.000218148 0 0.000427299 0.000276717 0 0.000431508 0.000173093 0 
0.000328731 0.000425633 0 0.00034586 0.000114823 0 0.000435362 7.05241e-05 0 
0.000350892 1.5455e-05 0 0.000441547 -3.11896e-05 0 0.000353547 -8.47783e-05 0 
0.000445767 -0.000132964 0 0.000356135 -0.000186358 0 0.000449094 -0.000234674 0 
0.000359978 -0.000287876 0 0.00026856 -0.000240545 0 0.000271895 -0.000341045 0 
0.000181792 -0.00029305 0 0.00018533 -0.000392851 0 9.75701e-05 -0.00034483 0 
9.98764e-05 -0.000444884 0 8.75116e-06 -0.000396343 0 1.20916e-05 -0.000500496 0 
-7.83929e-05 -0.000449843 0 -8.1471e-05 -0.000347249 0 -0.000171566 -0.000403733 0 
-0.000169889 -0.000298891 0 -0.000259867 -0.000354132 0 -0.000257696 -0.000249137 0 
-0.00034313 -0.000299896 0 -0.000344514 -0.000199127 0 -0.000434309 -0.000250039 0 
-0.000169832 -0.000505815 0 -0.000435227 -0.000146227 0 0.000280331 -0.000442424 0 
-0.000340889 8.76793e-05 0 -0.000515252 4.06198e-05 0 6.50491e-05 0.000568253 0 
0.00053278 1.74743e-05 0 0.000522071 0.000229831 0 -0.00037162 0.000391659 0 
-0.000255272 -0.000150439 0 -0.000442893 -0.000350705 0 0.000450067 -0.000332559 0 
0.000545175 -0.000276306 0 -0.000527797 -0.000197598 0 0.000105306 -0.000551033 0 
1.45836e-05 -0.000609147 0 0.00017145 0.000214453 0 0.000515525 0.000341711 0 
0.000636086 0.000290368 0 -0.000558657 0.000404468 0 -4.01232e-05 0.000616718 0 
6.60192e-05 0.000696422 0 -0.000101806 0.0002546 0 0.000271142 -3.88908e-05 0 
0.000179455 -0.00018534 0 -8.79553e-05 -0.000254307 0 -0.000749267 -0.000373451 0 
-0.000655941 -0.000323397 0 0.000709746 0.000466718 0 0.000698426 -0.000473086 0 
-5.25801e-05 -0.00084886 0 -4.93005e-05 0.000848038 0 0.000617396 -0.000413362 0 
0.000702056 -0.000369817 0 0.000131459 -0.000679171 0 2.48171e-05 -0.000715924 0 
-0.000664217 -0.00042729 0 -0.000528828 -8.80444e-05 0 -0.000611101 -0.000136672 0 
-0.000426972 -4.45841e-05 0 0.000800669 0.000378216 0 0.000821144 -0.000415062 0 
7.2799e-05 0.00088254 0 6.81831e-05 -0.00087503 0 0.000104963 -0.000788946 0 
-7.40696e-05 -0.000660054 0 0.000126061 0.000809943 0 0.000764361 0.000295682 0 
0.000166862 0.000630623 0 0.000516462 -0.00046707 0 -0.000563585 -0.000389606 0 
-0.000622598 -1.40238e-05 0 0.000629891 0.000171529 0 2.5614e-06 -0.000299794 0 
8.6901e-05 -0.00024329 0 0.000272045 -0.000136982 0 -0.00075148 0.000138321 0 
0.000209366 -0.000599589 0 0.000324913 -0.000630055 0 0.000614044 0.00041245 0 
0.00049651 -0.000573327 0 0.000394822 -0.000507321 0 -0.000173714 -0.000206698 0 
0.000264897 5.63722e-05 0 0.000247997 0.000152811 0 -4.63327e-05 -0.000920208 0 
9.18688e-05 0.000258626 0 -5.54111e-06 0.000290558 0 -0.000184219 0.000201484 0 
-0.000263559 0.000142267 0 -0.000256427 5.13624e-05 0 -0.000336894 -2.06179e-06 0 
-0.000228499 -4.2388e-05 0 -0.00017589 0.000106626 0 -0.000769947 -0.000133367 0 
0.000767591 -0.000500293 0 -5.05874e-05 0.000737978 0 0.000754456 -3.51771e-06 0 
0.00064691 -6.15298e-05 0 0.000630483 -0.00018134 0 0.000749187 -0.000265543 0 
-0.000760805 -0.000462521 0 0.000638155 6.09315e-05 0 -4.46661e-05 0.000922995 0 
-2.37945e-05 0.000207237 0 0.000776979 0.000500181 0 -0.000605691 0.000527596 0 
-0.000377914 -0.000653727 0 -0.000372325 -0.000526022 0 -0.000275829 -0.000589621 0 
-0.000254285 -0.000710579 0 -0.000379307 0.000656222 0 -0.000379818 0.00052718 0 
-0.000266817 0.000721555 0 -0.000150544 0.000668174 0 0.000381963 0.00065079 0 
0.000493113 0.000590432 0 0.000505439 0.000463708 0 -0.000269094 0.000596608 0 
0.000385815 0.000532045 0 0.000283599 0.0005899 0 -0.000176405 -0.000108505 0 
-0.000278769 -0.000475415 0 0.000185395 2.33014e-06 0 0.000186773 0.000517571 0 
0.000540032 -8.68444e-05 0 -0.000600694 -0.000514877 0 -0.00063703 8.98033e-05 0 
-0.000459677 0.000335729 0 -0.000338836 -0.000100751 0 -0.000457327 0.000432721 0 
-8.72007e-06 -0.000210238 0 0.000156073 0.000129496 0 -7.70692e-05 -0.000555049 0 
0.00036091 -0.000389728 0 0.000531628 0.000120564 0 -0.000285451 0.000435562 0 
0.000192719 -0.000494604 0 0.00041642 0.00039368 0 -0.000135943 0.000554637 0 
-0.000170665 -0.000610079 0 -0.000666304 0.000434981 0 -0.000758736 0.000479231 0 
-0.000470189 -0.000458901 0 0.000203433 -8.59809e-05 0 0.000101846 0.000170114 0 
-0.00035513 -0.00040726 0 0.000100184 -0.000165831 0 2.96286e-05 0.00081537 0 
0.000720946 0.000381836 0 -0.000539809 -0.000292001 0 0.00052211 -0.000182426 0 
-6.41339e-05 -0.000753908 0 0.000638039 -0.000299861 0 -0.000605136 -0.000230182 0 
-3.41638e-05 -0.000145561 0 -0.000104037 0.000172396 0 -0.000808575 -0.00042774 0 
-0.000807207 -0.000465052 0 -0.00080817 0.000429771 0 -0.000806589 0.000469738 0 
-9.50634e-05 -0.000178909 0 0.000247777 0.000445058 0 1.48293e-05 -0.000814201 0 
-4.11555e-05 0.000140955 0 0.000276104 -0.000536845 0 0.000765969 -0.000436638 0 
0.000780871 -0.000362769 0 0.000424176 -0.000642018 0 0.00053413 -0.000368009 0 
-0.000416333 4.17911e-05 0 -0.000133891 -6.23822e-05 0 4.2574e-05 0.000206312 0 
[...]
POINT_DATA 626
VECTORS displacement float
-1.74395e-06 3.09543e-05 1.80549e-05
1.73566e-06 3.09733e-05 1.81e-05
-2.59861e-05 1.69928e-05 1.8087e-05
-2.58408e-05 1.60329e-05 1.80516e-05
-2.77205e-05 1.39727e-05 1.8069e-05
-2.77135e-05 -1.4019e-05 1.80944e-05
-2.5812e-05 -1.60711e-05 1.81058e-05
-2.59823e-05 -1.70108e-05 1.8167e-05
-1.6774e-06 -3.0958e-05 1.80513e-05
1.75545e-06 -3.09595e-05 1.81018e-05
2.59435e-05 -1.69806e-05 1.80434e-05
2.77169e-05 -1.39366e-05 1.80433e-05
2.76723e-05 1.39893e-05 1.80916e-05
2.59148e-05 1.69929e-05 1.80459e-05
0 0 0
-1.74395e-06 3.09543e-05 -1.80549e-05
1.73566e-06 3.09733e-05 -1.81e-05
-2.59861e-05 1.69928e-05 -1.8087e-05
-2.58408e-05 1.60329e-05 -1.80516e-05
-2.77205e-05 1.39727e-05 -1.8069e-05
-2.77135e-05 -1.4019e-05 -1.80944e-05
-2.5812e-05 -1.60711e-05 -1.81058e-05
-2.59823e-05 -1.70108e-05 -1.8167e-05
-1.6774e-06 -3.0958e-05 -1.80513e-05
1.75545e-06 -3.09595e-05 -1.81018e-05
2.59435e-05 -1.69806e-05 -1.80434e-05
2.77169e-05 -1.39366e-05 -1.80433e-05
2.76723e-05 1.39893e-05 -1.80916e-05
2.59148e-05 1.69929e-05 -1.80459e-05
0 0 0
2.4895e-08 3.01542e-05 1.80341e-05
-2.11404e-05 1.87123e-05 1.75496e-05
-1.72324e-05 1.98337e-05 1.69207e-05
-1.40068e-05 2.10541e-05 1.65548e-05
-1.12068e-05 2.26647e-05 1.65487e-05
-8.52403e-06 2.48327e-05 1.69012e-05
-5.56778e-06 2.76215e-05 1.75373e-05
-2.64497e-05 1.4679e-05 1.80334e-05
-2.67686e-05 -9.01145e-06 1.75773e-05
-2.5806e-05 -5.03542e-06 1.69258e-05
-2.52543e-05 -1.63619e-06 1.65713e-05
-2.52572e-05 1.60783e-06 1.65742e-05
-2.57983e-05 5.02282e-06 1.6924e-05
-2.67548e-05 8.98453e-06 1.75638e-05
-2.64366e-05 -1.47254e-05 1.80622e-05
-5.54104e-06 -2.7636e-05 1.75295e-05
-8.47655e-06 -2.48417e-05 1.69005e-05
-1.117e-05 -2.26841e-05 1.6556e-05
-1.39705e-05 -2.10871e-05 1.65594e-05
-1.72148e-05 -1.98691e-05 1.69365e-05
-2.1134e-05 -1.87491e-05 1.75621e-05
8.98408e-08 -3.01389e-05 1.80293e-05
2.11238e-05 -1.86247e-05 1.75113e-05
1.72445e-05 -1.97621e-05 1.68727e-05
1.40338e-05 -2.1011e-05 1.65114e-05
1.1225e-05 -2.25928e-05 1.6546e-05
8.58119e-06 -2.47799e-05 1.6874e-05
5.65466e-06 -2.76262e-05 1.75349e-05
2.61244e-05 -1.50596e-05 1.80283e-05
2.67166e-05 8.93832e-06 1.75014e-05
2.57219e-05 5.04954e-06 1.69082e-05
2.52064e-05 1.6233e-06 1.6523e-05
2.52035e-05 -1.59941e-06 1.65213e-05
2.57505e-05 -4.99733e-06 1.68882e-05
2.66987e-05 -8.91707e-06 1.75096e-05
2.61075e-05 1.50607e-05 1.80253e-05
5.63312e-06 2.76176e-05 1.75094e-05
8.50857e-06 2.48066e-05 1.69111e-05
1.1217e-05 2.26408e-05 1.65292e-05
1.40044e-05 2.1022e-05 1.65246e-05
1.72215e-05 1.97933e-05 1.68849e-05
2.11148e-05 1.86343e-05 1.75253e-05
0 0 0
0 0 0
0 0 0
0 0 0
0 0 0
0 0 0
2.4895e-08 3.01542e-05 -1.80341e-05
-2.11404e-05 1.87123e-05 -1.75496e-05
-1.72324e-05 1.98337e-05 -1.69207e-05
-1.40068e-05 2.10541e-05 -1.65548e-05
-1.12068e-05 2.26647e-05 -1.65487e-05
-8.52403e-06 2.48327e-05 -1.69012e-05
-5.56778e-06 2.76215e-05 -1.75373e-05
-2.64497e-05 1.4679e-05 -1.80334e-05
-2.67686e-05 -9.01145e-06 -1.75773e-05
-2.5806e-05 -5.03542e-06 -1.69258e-05
-2.52543e-05 -1.63619e-06 -1.65713e-05
-2.52572e-05 1.60783e-06 -1.65742e-05
-2.57983e-05 5.02282e-06 -1.6924e-05
-2.67548e-05 8.98453e-06 -1.75638e-05
-2.64366e-05 -1.47254e-05 -1.80622e-05
-5.54104e-06 -2.7636e-05 -1.75295e-05
-8.47655e-06 -2.48417e-05 -1.69005e-05
-1.117e-05 -2.26841e-05 -1.6556e-05
-1.39705e-05 -2.10871e-05 -1.65594e-05
-1.72148e-05 -1.98691e-05 -1.69365e-05
-2.1134e-05 -1.87491e-05 -1.75621e-05
8.98408e-08 -3.01389e-05 -1.80293e-05
2.11238e-05 -1.86247e-05 -1.75113e-05
1.72445e-05 -1.97621e-05 -1.68727e-05
1.40338e-05 -2.1011e-05 -1.65114e-05
1.1225e-05 -2.25928e-05 -1.6546e-05
8.58119e-06 -2.47799e-05 -1.6874e-05
5.65466e-06 -2.76262e-05 -1.75349e-05
2.61244e-05 -1.50596e-05 -1.80283e-05
2.67166e-05 8.93832e-06 -1.75014e-05
2.57219e-05 5.04954e-06 -1.69082e-05
2.52064e-05 1.6233e-06 -1.6523e-05
2.52035e-05 -1.59941e-06 -1.65213e-05
2.57505e-05 -4.99733e-06 -1.68882e-05
2.66987e-05 -8.91707e-06 -1.75096e-05
2.61075e-05 1.50607e-05 -1.80253e-05
5.63312e-06 2.76176e-05 -1.75094e-05
8.50857e-06 2.48066e-05 -1.69111e-05
1.1217e-05 2.26408e-05 -1.65292e-05
1.40044e-05 2.1022e-05 -1.65246e-05
1.72215e-05 1.97933e-05 -1.68849e-05
2.11148e-05 1.86343e-05 -1.75253e-05
0 0 0
0 0 0
0 0 0
0 0 0
0 0 0
0 0 0
1.79367e-06 8.5874e-07 4.55221e-06
1.73781e-06 -8.25108e-07 4.46076e-06
4.31951e-07 1.84961e-06 4.49507e-06
4.36095e-07 -1.78062e-06 4.35605e-06
-1.84747e-06 2.09629e-08 4.42232e-06
-1.12308e-06 -1.30886e-06 4.15096e-06
-1.1592e-06 1.30679e-06 4.19974e-06
-2.25129e-05 -7.2876e-06 1.69998e-05
-2.21962e-05 7.37149e-06 1.69685e-05
-4.86041e-06 2.28983e-05 1.69369e-05
-4.85792e-06 -2.31314e-05 1.69638e-05
1.74211e-05 1.56353e-05 1.69297e-05
1.75686e-05 -1.55363e-05 1.6939e-05
2.10733e-05 3.16385e-06 1.63242e-05
-1.3953e-05 1.71511e-05 1.64782e-05
-1.3591e-05 -1.67411e-05 1.64098e-05
7.76778e-06 1.98193e-05 1.6331e-05
7.6848e-06 -2.03098e-05 1.64023e-05
2.14721e-05 -3.44369e-06 1.64e-05
-2.11025e-05 6.58808e-09 1.62465e-05
-2.24202e-05 1.09996e-05 1.74535e-05
-1.87507e-05 9.25461e-06 1.66269e-05
-1.79826e-05 5.79539e-06 1.60361e-05
-1.49838e-05 7.44826e-06 1.54862e-05
-1.42243e-05 4.30768e-06 1.48295e-05
-1.15325e-05 5.74383e-06 1.40945e-05
-1.08579e-05 3.0687e-06 1.33733e-05
-8.4004e-06 4.30483e-06 1.24041e-05
-9.05871e-06 7.01333e-06 1.34561e-05
-6.20404e-06 5.48845e-06 1.16887e-05
-6.82823e-06 8.24936e-06 1.30797e-05
-4.28135e-06 6.67484e-06 1.14503e-05
-4.79996e-06 9.60983e-06 1.30936e-05
-2.40085e-06 7.99327e-06 1.17227e-05
-2.81282e-06 1.11671e-05 1.34747e-05
-4.75405e-07 9.5952e-06 1.25007e-05
-7.38346e-07 1.29968e-05 1.41415e-05
1.73106e-06 1.15177e-05 1.35347e-05
-5.53463e-06 1.27003e-05 1.44367e-05
1.68506e-06 8.22389e-06 1.17473e-05
4.00414e-06 1.01208e-05 1.31507e-05
3.70532e-06 7.09788e-06 1.1478e-05
6.06734e-06 8.96658e-06 1.31131e-05
5.76676e-06 6.10673e-06 1.17353e-05
8.358e-06 8.02024e-06 1.34918e-05
8.10557e-06 5.19522e-06 1.25001e-05
1.09539e-05 7.09698e-06 1.41467e-05
1.07459e-05 4.32275e-06 1.34988e-05
8.53044e-06 1.10374e-05 1.44605e-05
7.93762e-06 2.64372e-06 1.17272e-05
1.06459e-05 1.73718e-06 1.31038e-05
7.94861e-06 3.58757e-07 1.14553e-05
1.08063e-05 -7.59105e-07 1.31239e-05
8.11156e-06 -1.93778e-06 1.17089e-05
1.10981e-05 -3.31282e-06 1.34836e-05
8.46965e-06 -4.42394e-06 1.24438e-05
1.15036e-05 -6.00282e-06 1.41091e-05
8.95549e-06 -7.13804e-06 1.34278e-05
6.14746e-06 -5.49436e-06 1.1641e-05
6.64443e-06 -8.30078e-06 1.3018e-05
4.10517e-06 -6.58845e-06 1.13107e-05
4.52331e-06 -9.55078e-06 1.2988e-05
2.24227e-06 -7.85821e-06 1.15971e-05
2.48481e-06 -1.10018e-05 1.33507e-05
2.25289e-07 -9.3736e-06 1.23534e-05
3.30011e-07 -1.27697e-05 1.40336e-05
-1.91542e-06 -1.11506e-05 1.33768e-05
-1.84105e-06 -7.92155e-06 1.1582e-05
-4.16786e-06 -9.87476e-06 1.30848e-05
-3.81391e-06 -6.73044e-06 1.13169e-05
-6.34556e-06 -8.66194e-06 1.30991e-05
-5.89125e-06 -5.69796e-06 1.16282e-05
-8.49964e-06 -7.43573e-06 1.33795e-05
-8.16747e-06 -4.72802e-06 1.24084e-05
-1.10955e-05 -6.40271e-06 1.40697e-05
-4.37161e-06 -1.31231e-05 1.44334e-05
-1.08088e-05 -3.65065e-06 1.3439e-05
7.22605e-06 -1.13727e-05 1.42727e-05
-7.74164e-06 1.98267e-06 1.14927e-05
-1.3216e-05 1.03505e-06 1.42107e-05
1.72911e-06 1.50827e-05 1.4952e-05
1.37679e-05 4.62233e-07 1.43876e-05
1.38431e-05 6.10005e-06 1.49315e-05
-9.69398e-06 1.01962e-05 1.45323e-05
-5.41597e-06 -3.19763e-06 1.0182e-05
-1.17135e-05 -9.29726e-06 1.4889e-05
1.18823e-05 -8.76014e-06 1.4787e-05
1.47817e-05 -7.47354e-06 1.54032e-05
-1.39596e-05 -5.24385e-06 1.48615e-05
2.7958e-06 -1.4516e-05 1.4796e-05
4.2456e-07 -1.64993e-05 1.53976e-05
3.51841e-06 4.39691e-06 9.581e-06
1.40105e-05 9.29899e-06 1.54914e-05
1.79307e-05 8.1449e-06 1.63004e-05
-1.56753e-05 1.13953e-05 1.62334e-05
-1.09408e-06 1.6769e-05 1.54951e-05
1.90685e-06 1.96215e-05 1.63108e-05
-2.09186e-06 5.22004e-06 9.5975e-06
5.55391e-06 -7.84599e-07 9.59405e-06
3.58593e-06 -3.68354e-06 9.08189e-06
-1.77963e-06 -5.17854e-06 9.44951e-06
-2.24686e-05 -1.10107e-05 1.74742e-05
-1.8798e-05 -9.24135e-06 1.66509e-05
2.11477e-05 1.41647e-05 1.75055e-05
2.07536e-05 -1.43175e-05 1.74355e-05
-1.7646e-06 -2.54464e-05 1.75108e-05
-1.68213e-06 2.54104e-05 1.75155e-05
1.77129e-05 -1.19068e-05 1.66871e-05
2.06456e-05 -1.0751e-05 1.71159e-05
3.77562e-06 -1.8985e-05 1.61393e-05
7.68527e-07 -2.03456e-05 1.64827e-05
-1.9405e-05 -1.26504e-05 1.7143e-05
-1.3731e-05 -2.30691e-06 1.44717e-05
-1.65926e-05 -3.7014e-06 1.54774e-05
-1.03757e-05 -1.09638e-06 1.29519e-05
2.44519e-05 1.10727e-05 1.76515e-05
2.54974e-05 -1.24032e-05 1.7848e-05
2.64924e-06 2.67258e-05 1.76604e-05
2.521e-06 -2.64134e-05 1.76293e-05
3.33945e-06 -2.30317e-05 1.7029e-05
-2.05388e-06 -1.83197e-05 1.59508e-05
4.05905e-06 2.37912e-05 1.71303e-05
2.2614e-05 8.37918e-06 1.71191e-05
4.61357e-06 1.73132e-05 1.57271e-05
1.44269e-05 -1.31193e-05 1.61372e-05
-1.57875e-05 -1.09846e-05 1.62144e-05
-1.67996e-05 -3.81424e-07 1.53772e-05
1.73058e-05 4.68743e-06 1.57255e-05
6.55216e-08 -6.38725e-06 1.02673e-05
1.7417e-06 -4.84842e-06 9.09239e-06
5.85041e-06 -2.93548e-06 1.03781e-05
-2.1444e-05 3.75047e-06 1.64587e-05
5.72931e-06 -1.62743e-05 1.55076e-05
9.08337e-06 -1.74989e-05 1.59973e-05
1.7572e-05 1.18816e-05 1.66722e-05
1.39941e-05 -1.63821e-05 1.64011e-05
1.07399e-05 -1.37888e-05 1.55499e-05
-3.54794e-06 -4.22015e-06 9.50066e-06
5.39907e-06 1.13849e-06 9.49894e-06
5.218e-06 3.22284e-06 1.00471e-05
-1.74978e-06 -2.83543e-05 1.78767e-05
1.89204e-06 5.29884e-06 9.58434e-06
-1.13822e-07 6.10495e-06 1.00386e-05
-3.78488e-06 4.1277e-06 9.5783e-06
-5.62262e-06 3.03415e-06 1.02851e-05
-5.16542e-06 1.04066e-06 9.21351e-06
-7.52717e-06 -6.17385e-08 1.11723e-05
-4.33433e-06 -8.1027e-07 8.38176e-06
-3.10856e-06 1.87232e-06 7.37398e-06
-2.20809e-05 -3.60771e-06 1.65156e-05
2.3406e-05 -1.56878e-05 1.7836e-05
-1.50718e-06 2.11677e-05 1.66819e-05
2.12614e-05 -8.45186e-08 1.62256e-05
1.76219e-05 -1.64678e-06 1.55813e-05
1.73475e-05 -4.94162e-06 1.57705e-05
2.18913e-05 -7.45103e-06 1.69134e-05
-2.3182e-05 -1.42544e-05 1.78326e-05
1.73244e-05 1.64885e-06 1.55084e-05
-1.73399e-06 2.84728e-05 1.7894e-05
-4.22068e-07 3.68338e-06 7.49522e-06
2.37717e-05 1.57422e-05 1.78844e-05
-1.74972e-05 1.56421e-05 1.69748e-05
-1.06261e-05 -1.84659e-05 1.62549e-05
-1.00994e-05 -1.43422e-05 1.55715e-05
-7.50769e-06 -1.60947e-05 1.56219e-05
-7.32205e-06 -2.01203e-05 1.63951e-05
-1.07043e-05 1.8535e-05 1.62666e-05
-1.03472e-05 1.43839e-05 1.56192e-05
-7.77256e-06 2.04922e-05 1.64441e-05
-4.25295e-06 1.86095e-05 1.60528e-05
1.07596e-05 1.83452e-05 1.6226e-05
1.38915e-05 1.69347e-05 1.64308e-05
1.40418e-05 1.29728e-05 1.60511e-05
-7.3615e-06 1.62881e-05 1.56383e-05
1.0525e-05 1.45469e-05 1.5645e-05
7.74867e-06 1.60921e-05 1.56138e-05
-3.11644e-06 -1.89875e-06 7.39311e-06
-7.25757e-06 -1.24219e-05 1.4625e-05
3.00864e-06 4.03598e-08 6.60091e-06
4.87253e-06 1.35226e-05 1.46179e-05
1.40759e-05 -2.26036e-06 1.45703e-05
-1.72896e-05 -1.52166e-05 1.69454e-05
-1.73663e-05 2.42028e-06 1.55977e-05
-1.22046e-05 8.91185e-06 1.49433e-05
-7.70556e-06 -2.2925e-06 1.15545e-05
-1.24497e-05 1.18125e-05 1.55398e-05
-1.42734e-07 -3.7542e-06 7.55411e-06
2.73021e-06 2.27206e-06 7.25186e-06
-2.00384e-06 -1.46503e-05 1.48079e-05
9.365e-06 -1.00681e-05 1.43892e-05
1.38606e-05 3.15778e-06 1.45659e-05
-7.33997e-06 1.11993e-05 1.42601e-05
4.99717e-06 -1.27747e-05 1.43691e-05
1.10318e-05 1.04304e-05 1.49195e-05
-3.59641e-06 1.46851e-05 1.49079e-05
-4.63543e-06 -1.66167e-05 1.55487e-05
-1.95069e-05 1.28924e-05 1.71612e-05
-2.31268e-05 1.48581e-05 1.78433e-05
-1.29048e-05 -1.2686e-05 1.58124e-05
3.76077e-06 -1.58611e-06 7.90688e-06
1.76438e-06 2.92226e-06 7.08437e-06
-9.2304e-06 -1.06094e-05 1.45317e-05
1.72773e-06 -2.82314e-06 6.93101e-06
9.94727e-07 2.41167e-05 1.73084e-05
2.13678e-05 1.11938e-05 1.72986e-05
-1.46645e-05 -7.95333e-06 1.54852e-05
1.3708e-05 -4.78628e-06 1.46905e-05
-1.90987e-06 -2.17628e-05 1.68026e-05
1.80603e-05 -8.419e-06 1.63406e-05
-1.66788e-05 -6.32852e-06 1.57823e-05
-4.32898e-07 -1.92231e-06 4.79844e-06
-1.80536e-06 2.99542e-06 7.17712e-06
-2.50519e-05 -1.29817e-05 1.79222e-05
-2.51271e-05 -1.45072e-05 1.8002e-05
-2.5045e-05 1.30336e-05 1.7906e-05
-2.51179e-05 1.46499e-05 1.79821e-05
-1.64844e-06 -3.12483e-06 7.20986e-06
6.3279e-06 1.13683e-05 1.40765e-05
5.33709e-07 -2.4086e-05 1.73022e-05
-5.22775e-07 1.80953e-06 4.64498e-06
7.40741e-06 -1.43436e-05 1.51523e-05
2.33027e-05 -1.32093e-05 1.77287e-05
2.36326e-05 -1.05375e-05 1.74908e-05
1.19883e-05 -1.82108e-05 1.62932e-05
1.473e-05 -1.01466e-05 1.57955e-05
-1.0027e-05 1.00124e-06 1.27545e-05
-1.74e-06 -8.15898e-07 4.72342e-06
7.6906e-07 3.70833e-06 7.57309e-06
2.34306e-06 -1.99715e-06 6.55524e-06
2.01564e-05 5.89778e-06 1.64535e-05
5.07006e-06 2.05958e-05 1.64959e-05
3.42118e-07 -2.76799e-05 1.7854e-05
-1.73122e-06 7.09108e-07 4.60629e-06
-3.21149e-06 6.23045e-07 6.82409e-06
3.5772e-06 1.4754e-06 7.63657e-06
4.99225e-07 2.83237e-05 1.79272e-05
2.47602e-05 1.3734e-05 1.79184e-05
-2.03282e-05 1.55358e-05 1.7429e-05
1.1787e-06 1.36447e-06 4.45982e-06
-2.06395e-05 -1.57283e-05 1.75276e-05
-1.89988e-05 -2.32217e-06 1.59461e-05
-1.9559e-05 -5.58495e-06 1.63322e-05
9.05678e-07 -3.24774e-06 7.00605e-06
-4.366e-06 -1.97892e-05 1.63218e-05
-7.93723e-06 1.38343e-05 1.5101e-05
1.16574e-06 -1.30418e-06 4.33926e-06
1.19344e-05 -1.12283e-05 1.52921e-05
6.13304e-06 -2.2696e-05 1.68204e-05
-1.45221e-05 1.43553e-05 1.63236e-05
7.92903e-06 1.33212e-05 1.49479e-05
1.79367e-06 8.5874e-07 -4.55221e-06
1.73781e-06 -8.25108e-07 -4.46076e-06
4.31951e-07 1.84961e-06 -4.49507e-06
4.36095e-07 -1.78062e-06 -4.35605e-06
-1.84747e-06 2.09629e-08 -4.42232e-06
-1.12308e-06 -1.30886e-06 -4.15096e-06
-1.1592e-06 1.30679e-06 -4.19974e-06
-2.25129e-05 -7.2876e-06 -1.69998e-05
-2.21962e-05 7.37149e-06 -1.69685e-05
-4.86041e-06 2.28983e-05 -1.69369e-05
-4.85792e-06 -2.31314e-05 -1.69638e-05
1.74211e-05 1.56353e-05 -1.69297e-05
1.75686e-05 -1.55363e-05 -1.6939e-05
2.10733e-05 3.16385e-06 -1.63242e-05
-1.3953e-05 1.71511e-05 -1.64782e-05
-1.3591e-05 -1.67411e-05 -1.64098e-05
7.76778e-06 1.98193e-05 -1.6331e-05
7.6848e-06 -2.03098e-05 -1.64023e-05
2.14721e-05 -3.44369e-06 -1.64e-05
-2.11025e-05 6.58808e-09 -1.62465e-05
-2.24202e-05 1.09996e-05 -1.74535e-05
-1.87507e-05 9.25461e-06 -1.66269e-05
-1.79826e-05 5.79539e-06 -1.60361e-05
-1.49838e-05 7.44826e-06 -1.54862e-05
-1.42243e-05 4.30768e-06 -1.48295e-05
-1.15325e-05 5.74383e-06 -1.40945e-05
-1.08579e-05 3.0687e-06 -1.33733e-05
-8.4004e-06 4.30483e-06 -1.24041e-05
-9.05871e-06 7.01333e-06 -1.34561e-05
-6.20404e-06 5.48845e-06 -1.16887e-05
-6.82823e-06 8.24936e-06 -1.30797e-05
-4.28135e-06 6.67484e-06 -1.14503e-05
-4.79996e-06 9.60983e-06 -1.30936e-05
-2.40085e-06 7.99327e-06 -1.17227e-05
-2.81282e-06 1.11671e-05 -1.34747e-05
-4.75405e-07 9.5952e-06 -1.25007e-05
-7.38346e-07 1.29968e-05 -1.41415e-05
1.73106e-06 1.15177e-05 -1.35347e-05
-5.53463e-06 1.27003e-05 -1.44367e-05
1.68506e-06 8.22389e-06 -1.17473e-05
4.00414e-06 1.01208e-05 -1.31507e-05
3.70532e-06 7.09788e-06 -1.1478e-05
6.06734e-06 8.96658e-06 -1.31131e-05
5.76676e-06 6.10673e-06 -1.17353e-05
8.358e-06 8.02024e-06 -1.34918e-05
8.10557e-06 5.19522e-06 -1.25001e-05
1.09539e-05 7.09698e-06 -1.41467e-05
1.07459e-05 4.32275e-06 -1.34988e-05
8.53044e-06 1.10374e-05 -1.44605e-05
7.93762e-06 2.64372e-06 -1.17272e-05
1.06459e-05 1.73718e-06 -1.31038e-05
7.94861e-06 3.58757e-07 -1.14553e-05
1.08063e-05 -7.59105e-07 -1.31239e-05
8.11156e-06 -1.93778e-06 -1.17089e-05
1.10981e-05 -3.31282e-06 -1.34836e-05
8.46965e-06 -4.42394e-06 -1.24438e-05
1.15036e-05 -6.00282e-06 -1.41091e-05
8.95549e-06 -7.13804e-06 -1.34278e-05
6.14746e-06 -5.49436e-06 -1.1641e-05
6.64443e-06 -8.30078e-06 -1.3018e-05
4.10517e-06 -6.58845e-06 -1.13107e-05
4.52331e-06 -9.55078e-06 -1.2988e-05
2.24227e-06 -7.85821e-06 -1.15971e-05
2.48481e-06 -1.10018e-05 -1.33507e-05
2.25289e-07 -9.3736e-06 -1.23534e-05
3.30011e-07 -1.27697e-05 -1.40336e-05
-1.91542e-06 -1.11506e-05 -1.33768e-05
-1.84105e-06 -7.92155e-06 -1.1582e-05
-4.16786e-06 -9.87476e-06 -1.30848e-05
-3.81391e-06 -6.73044e-06 -1.13169e-05
-6.34556e-06 -8.66194e-06 -1.30991e-05
-5.89125e-06 -5.69796e-06 -1.16282e-05
-8.49964e-06 -7.43573e-06 -1.33795e-05
-8.16747e-06 -4.72802e-06 -1.24084e-05
-1.10955e-05 -6.40271e-06 -1.40697e-05
-4.37161e-06 -1.31231e-05 -1.44334e-05
-1.08088e-05 -3.65065e-06 -1.3439e-05
7.22605e-06 -1.13727e-05 -1.42727e-05
-7.74164e-06 1.98267e-06 -1.14927e-05
-1.3216e-05 1.03505e-06 -1.42107e-05
1.72911e-06 1.50827e-05 -1.4952e-05
1.37679e-05 4.62233e-07 -1.43876e-05
1.38431e-05 6.10005e-06 -1.49315e-05
-9.69398e-06 1.01962e-05 -1.45323e-05
-5.41597e-06 -3.19763e-06 -1.0182e-05
-1.17135e-05 -9.29726e-06 -1.4889e-05
1.18823e-05 -8.76014e-06 -1.4787e-05
1.47817e-05 -7.47354e-06 -1.54032e-05
-1.39596e-05 -5.24385e-06 -1.48615e-05
2.7958e-06 -1.4516e-05 -1.4796e-05
4.2456e-07 -1.64993e-05 -1.53976e-05
3.51841e-06 4.39691e-06 -9.581e-06
1.40105e-05 9.29899e-06 -1.54914e-05
1.79307e-05 8.1449e-06 -1.63004e-05
-1.56753e-05 1.13953e-05 -1.62334e-05
-1.09408e-06 1.6769e-05 -1.54951e-05
1.90685e-06 1.96215e-05 -1.63108e-05
-2.09186e-06 5.22004e-06 -9.5975e-06
5.55391e-06 -7.84599e-07 -9.59405e-06
3.58593e-06 -3.68354e-06 -9.08189e-06
-1.77963e-06 -5.17854e-06 -9.44951e-06
-2.24686e-05 -1.10107e-05 -1.74742e-05
-1.8798e-05 -9.24135e-06 -1.66509e-05
2.11477e-05 1.41647e-05 -1.75055e-05
2.07536e-05 -1.43175e-05 -1.74355e-05
-1.7646e-06 -2.54464e-05 -1.75108e-05
-1.68213e-06 2.54104e-05 -1.75155e-05
1.77129e-05 -1.19068e-05 -1.66871e-05
2.06456e-05 -1.0751e-05 -1.71159e-05
3.77562e-06 -1.8985e-05 -1.61393e-05
7.68527e-07 -2.03456e-05 -1.64827e-05
-1.9405e-05 -1.26504e-05 -1.7143e-05
-1.3731e-05 -2.30691e-06 -1.44717e-05
-1.65926e-05 -3.7014e-06 -1.54774e-05
-1.03757e-05 -1.09638e-06 -1.29519e-05
2.44519e-05 1.10727e-05 -1.76515e-05
2.54974e-05 -1.24032e-05 -1.7848e-05
2.64924e-06 2.67258e-05 -1.76604e-05
2.521e-06 -2.64134e-05 -1.76293e-05
3.33945e-06 -2.30317e-05 -1.7029e-05
-2.05388e-06 -1.83197e-05 -1.59508e-05
4.05905e-06 2.37912e-05 -1.71303e-05
2.2614e-05 8.37918e-06 -1.71191e-05
4.61357e-06 1.73132e-05 -1.57271e-05
1.44269e-05 -1.31193e-05 -1.61372e-05
-1.57875e-05 -1.09846e-05 -1.62144e-05
-1.67996e-05 -3.81424e-07 -1.53772e-05
1.73058e-05 4.68743e-06 -1.57255e-05
6.55216e-08 -6.38725e-06 -1.02673e-05
1.7417e-06 -4.84842e-06 -9.09239e-06
5.85041e-06 -2.93548e-06 -1.03781e-05
-2.1444e-05 3.75047e-06 -1.64587e-05
5.72931e-06 -1.62743e-05 -1.55076e-05
9.08337e-06 -1.74989e-05 -1.59973e-05
1.7572e-05 1.18816e-05 -1.66722e-05
1.39941e-05 -1.63821e-05 -1.64011e-05
1.07399e-05 -1.37888e-05 -1.55499e-05
-3.54794e-06 -4.22015e-06 -9.50066e-06
5.39907e-06 1.13849e-06 -9.49894e-06
5.218e-06 3.22284e-06 -1.00471e-05
-1.74978e-06 -2.83543e-05 -1.78767e-05
1.89204e-06 5.29884e-06 -9.58434e-06
-1.13822e-07 6.10495e-06 -1.00386e-05
-3.78488e-06 4.1277e-06 -9.5783e-06
-5.62262e-06 3.03415e-06 -1.02851e-05
-5.16542e-06 1.04066e-06 -9.21351e-06
-7.52717e-06 -6.17385e-08 -1.11723e-05
-4.33433e-06 -8.1027e-07 -8.38176e-06
-3.10856e-06 1.87232e-06 -7.37398e-06
-2.20809e-05 -3.60771e-06 -1.65156e-05
2.3406e-05 -1.56878e-05 -1.7836e-05
-1.50718e-06 2.11677e-05 -1.66819e-05
2.12614e-05 -8.45186e-08 -1.62256e-05
1.76219e-05 -1.64678e-06 -1.55813e-05
1.73475e-05 -4.94162e-06 -1.57705e-05
2.18913e-05 -7.45103e-06 -1.69134e-05
-2.3182e-05 -1.42544e-05 -1.78326e-05
1.73244e-05 1.64885e-06 -1.55084e-05
-1.73399e-06 2.84728e-05 -1.7894e-05
-4.22068e-07 3.68338e-06 -7.49522e-06