# vtk DataFile Version 3.0
vtk output at time 210
ASCII
DATASET UNSTRUCTURED_GRID
POINTS 626 float
-3.68058e-05 0.000978749 0 3.68058e-05 0.000978749 0 -0.000829194 0.00052125 0 
-0.0008235 0.0005 0 -0.000866 0.0004575 0 -0.000866 -0.0004575 0 
-0.0008235 -0.0005 0 -0.000829194 -0.00052125 0 -3.68058e-05 -0.000978749 0 
3.68058e-05 -0.000978749 0 0.000829194 -0.00052125 0 0.000866 -0.0004575 0 
0.000866 0.0004575 0 0.000829194 0.00052125 0 8.5e-05 0 0 
-3.68058e-05 0.000978749 -0.001 3.68058e-05 0.000978749 -0.001 -0.000829194 0.00052125 -0.001 
-0.0008235 0.0005 -0.001 -0.000866 0.0004575 -0.001 -0.000866 -0.0004575 -0.001 
-0.0008235 -0.0005 -0.001 -0.000829194 -0.00052125 -0.001 -3.68058e-05 -0.000978749 -0.001 
3.68058e-05 -0.000978749 -0.001 0.000829194 -0.00052125 -0.001 0.000866 -0.0004575 -0.001 
0.000866 0.0004575 -0.001 0.000829194 0.00052125 -0.001 8.5e-05 0 -0.001 
8.46223e-17 0.0009575 0 -0.000715996 0.000586607 0 -0.000602797 0.000651965 0 
-0.000489599 0.000717321 0 -0.000376401 0.000782678 0 -0.000263202 0.000848036 0 
-0.000150004 0.000913393 0 -0.000835948 0.000469948 0 -0.000866 -0.000326786 0 
-0.000866 -0.000196071 0 -0.000866 -6.53571e-05 0 -0.000866 6.53571e-05 0 
-0.000866 0.000196071 0 -0.000866 0.000326786 0 -0.000835948 -0.000469948 0 
-0.000150004 -0.000913393 0 -0.000263202 -0.000848036 0 -0.000376401 -0.000782678 0 
-0.000489599 -0.000717321 0 -0.000602797 -0.000651965 0 -0.000715996 -0.000586607 0 
8.47648e-17 -0.0009575 0 0.000715996 -0.000586607 0 0.000602797 -0.000651965 0 
0.000489599 -0.000717321 0 0.000376401 -0.000782678 0 0.000263202 -0.000848036 0 
0.000150004 -0.000913393 0 0.000829194 -0.00047875 0 0.000866 0.000326786 0 
0.000866 0.000196071 0 0.000866 6.53571e-05 0 0.000866 -6.53571e-05 0 
0.000866 -0.000196071 0 0.000866 -0.000326786 0 0.000829194 0.00047875 0 
0.000150004 0.000913393 0 0.000263202 0.000848036 0 0.000376401 0.000782678 0 
0.000489599 0.000717321 0 0.000602797 0.000651965 0 0.000715996 0.000586607 0 
5.29966e-05 6.64557e-05 0 -1.89143e-05 8.28689e-05 0 -7.65824e-05 3.68801e-05 0 
-7.65824e-05 -3.68801e-05 0 -1.89143e-05 -8.28689e-05 0 5.29966e-05 -6.64557e-05 0 
8.46223e-17 0.0009575 -0.001 -0.000715996 0.000586607 -0.001 -0.000602797 0.000651965 -0.001 
-0.000489599 0.000717321 -0.001 -0.000376401 0.000782678 -0.001 -0.000263202 0.000848036 -0.001 
-0.000150004 0.000913393 -0.001 -0.000835948 0.000469948 -0.001 -0.000866 -0.000326786 -0.001 
-0.000866 -0.000196071 -0.001 -0.000866 -6.53571e-05 -0.001 -0.000866 6.53571e-05 -0.001 
-0.000866 0.000196071 -0.001 -0.000866 0.000326786 -0.001 -0.000835948 -0.000469948 -0.001 
-0.000150004 -0.000913393 -0.001 -0.000263202 -0.000848036 -0.001 -0.000376401 -0.000782678 -0.001 
-0.000489599 -0.000717321 -0.001 -0.000602797 -0.000651965 -0.001 -0.000715996 -0.000586607 -0.001 
8.47648e-17 -0.0009575 -0.001 0.000715996 -0.000586607 -0.001 0.000602797 -0.000651965 -0.001 
0.000489599 -0.000717321 -0.001 0.000376401 -0.000782678 -0.001 0.000263202 -0.000848036 -0.001 
0.000150004 -0.000913393 -0.001 0.000829194 -0.00047875 -0.001 0.000866 0.000326786 -0.001 
0.000866 0.000196071 -0.001 0.000866 6.53571e-05 -0.001 0.000866 -6.53571e-05 -0.001 
0.000866 -0.000196071 -0.001 0.000866 -0.000326786 -0.001 0.000829194 0.00047875 -0.001 
0.000150004 0.000913393 -0.001 0.000263202 0.000848036 -0.001 0.000376401 0.000782678 -0.001 
0.000489599 0.000717321 -0.001 0.000602797 0.000651965 -0.001 0.000715996 0.000586607 -0.001 
5.29966e-05 6.64557e-05 -0.001 -1.89143e-05 8.28689e-05 -0.001 -7.65824e-05 3.68801e-05 -0.001 
-7.65824e-05 -3.68801e-05 -0.001 -1.89143e-05 -8.28689e-05 -0.001 5.29966e-05 -6.64557e-05 -0.001 
0.000131234 6.38474e-05 0 0.00012964 -6.2443e-05 0 3.13827e-05 0.0001394 0 
3.12554e-05 -0.000136939 0 -0.000140461 8.25467e-19 0 -8.90565e-05 -0.000102707 0 
-9.04142e-05 0.000102872 0 -0.000765769 -0.00025965 0 -0.000756873 0.000262774 0 
-0.00015609 0.000787505 0 -0.000155807 -0.00079355 0 0.000605069 0.000528035 0 
0.000608694 -0.00052497 0 0.000744069 0.000116929 0 -0.000494418 0.000596218 0 
-0.000483866 -0.000584648 0 0.000269496 0.000702219 0 0.000263201 -0.000717324 0 
0.000754429 -0.000127825 0 -0.000748858 5.84659e-07 0 -0.000747838 0.000373886 0 
-0.0006542 0.000324842 0 -0.000645137 0.000210123 0 -0.000550884 0.000274171 0 
-0.000538857 0.000163195 0 -0.00045062 0.000224461 0 -0.000438393 0.000123907 0 
-0.000354088 0.000181668 0 -0.000363908 0.000282171 0 -0.000270361 0.000239477 0 
-0.000279138 0.000337653 0 -0.000188888 0.000294791 0 -0.000196448 0.000393271 0 
-0.000104767 0.000348259 0 -0.000113332 0.000449012 0 -2.01066e-05 0.000403223 0 
-2.89189e-05 0.000507105 0 6.9524e-05 0.000461596 0 -0.000213644 0.000490203 0 
7.33757e-05 0.000357726 0 0.000163331 0.00041299 0 0.000163359 0.000313022 0 
0.000248077 0.000366368 0 0.000250914 0.000265758 0 0.000335709 0.000322266 0 
0.000340555 0.000218148 0 0.000427299 0.000276717 0 0.000431508 0.000173093 0 
0.000328731 0.000425633 0 0.00034586 0.000114823 0 0.000435362 7.05241e-05 0 
0.000350892 1.5455e-05 0 0.000441547 -3.11896e-05 0 0.000353547 -8.47783e-05 0 
0.000445767 -0.000132964 0 0.000356135 -0.000186358 0 0.000449094 -0.000234674 0 
0.000359978 -0.000287876 0 0.00026856 -0.000240545 0 0.000271895 -0.000341045 0 
0.000181792 -0.00029305 0 0.00018533 -0.000392851 0 9.75701e-05 -0.00034483 0 
9.98764e-05 -0.000444884 0 8.75116e-06 -0.000396343 0 1.20916e-05 -0.000500496 0 
-7.83929e-05 -0.000449843 0 -8.1471e-05 -0.000347249 0 -0.000171566 -0.000403733 0 
-0.000169889 -0.000298891 0 -0.000259867 -0.000354132 0 -0.000257696 -0.000249137 0 
-0.00034313 -0.000299896 0 -0.000344514 -0.000199127 0 -0.000434309 -0.000250039 0 
-0.000169832 -0.000505815 0 -0.000435227 -0.000146227 0 0.000280331 -0.000442424 0 
-0.000340889 8.76793e-05 0 -0.000515252 4.06198e-05 0 6.50491e-05 0.000568253 0 
0.00053278 1.74743e-05 0 0.000522071 0.000229831 0 -0.00037162 0.000391659 0 
-0.000255272 -0.000150439 0 -0.000442893 -0.000350705 0 0.000450067 -0.000332559 0 
0.000545175 -0.000276306 0 -0.000527797 -0.000197598 0 0.000105306 -0.000551033 0 
1.45836e-05 -0.000609147 0 0.00017145 0.000214453 0 0.000515525 0.000341711 0 
0.000636086 0.000290368 0 -0.000558657 0.000404468 0 -4.01232e-05 0.000616718 0 
6.60192e-05 0.000696422 0 -0.000101806 0.0002546 0 0.000271142 -3.88908e-05 0 
0.000179455 -0.00018534 0 -8.79553e-05 -0.000254307 0 -0.000749267 -0.000373451 0 
-0.000655941 -0.000323397 0 0.000709746 0.000466718 0 0.000698426 -0.000473086 0 
-5.25801e-05 -0.00084886 0 -4.93005e-05 0.000848038 0 0.000617396 -0.000413362 0 
0.000702056 -0.000369817 0 0.000131459 -0.000679171 0 2.48171e-05 -0.000715924 0 
-0.000664217 -0.00042729 0 -0.000528828 -8.80444e-05 0 -0.000611101 -0.000136672 0 
-0.000426972 -4.45841e-05 0 0.000800669 0.000378216 0 0.000821144 -0.000415062 0 
7.2799e-05 0.00088254 0 6.81831e-05 -0.00087503 0 0.000104963 -0.000788946 0 
-7.40696e-05 -0.000660054 0 0.000126061 0.000809943 0 0.000764361 0.000295682 0 
0.000166862 0.000630623 0 0.000516462 -0.00046707 0 -0.000563585 -0.000389606 0 
-0.000622598 -1.40238e-05 0 0.000629891 0.000171529 0 2.5614e-06 -0.000299794 0 
8.6901e-05 -0.00024329 0 0.000272045 -0.000136982 0 -0.00075148 0.000138321 0 
0.000209366 -0.000599589 0 0.000324913 -0.000630055 0 0.000614044 0.00041245 0 
0.00049651 -0.000573327 0 0.000394822 -0.000507321 0 -0.000173714 -0.000206698 0 
0.000264897 5.63722e-05 0 0.000247997 0.000152811 0 -4.63327e-05 -0.000920208 0 
9.18688e-05 0.000258626 0 -5.54111e-06 0.000290558 0 -0.000184219 0.000201484 0 
-0.000263559 0.000142267 0 -0.000256427 5.13624e-05 0 -0.000336894 -2.06179e-06 0 
-0.000228499 -4.2388e-05 0 -0.00017589 0.000106626 0 -0.000769947 -0.000133367 0 
0.000767591 -0.000500293 0 -5.05874e-05 0.000737978 0 0.000754456 -3.51771e-06 0 
0.00064691 -6.15298e-05 0 0.000630483 -0.00018134 0 0.000749187 -0.000265543 0 
-0.000760805 -0.000462521 0 0.000638155 6.09315e-05 0 -4.46661e-05 0.000922995 0 
-2.37945e-05 0.000207237 0 0.000776979 0.000500181 0 -0.000605691 0.000527596 0 
-0.000377914 -0.000653727 0 -0.000372325 -0.000526022 0 -0.000275829 -0.000589621 0 
-0.000254285 -0.000710579 0 -0.000379307 0.000656222 0 -0.000379818 0.00052718 0 
-0.000266817 0.000721555 0 -0.000150544 0.000668174 0 0.000381963 0.00065079 0 
0.000493113 0.000590432 0 0.000505439 0.000463708 0 -0.000269094 0.000596608 0 
0.000385815 0.000532045 0 0.000283599 0.0005899 0 -0.000176405 -0.000108505 0 
-0.000278769 -0.000475415 0 0.000185395 2.33014e-06 0 0.000186773 0.000517571 0 
0.000540032 -8.68444e-05 0 -0.000600694 -0.000514877 0 -0.00063703 8.98033e-05 0 
-0.000459677 0.000335729 0 -0.000338836 -0.000100751 0 -0.000457327 0.000432721 0 
-8.72007e-06 -0.000210238 0 0.000156073 0.000129496 0 -7.70692e-05 -0.000555049 0 
0.00036091 -0.000389728 0 0.000531628 0.000120564 0 -0.000285451 0.000435562 0 
0.000192719 -0.000494604 0 0.00041642 0.00039368 0 -0.000135943 0.000554637 0 
-0.000170665 -0.000610079 0 -0.000666304 0.000434981 0 -0.000758736 0.000479231 0 
-0.000470189 -0.000458901 0 0.000203433 -8.59809e-05 0 0.000101846 0.000170114 0 
-0.00035513 -0.00040726 0 0.000100184 -0.000165831 0 2.96286e-05 0.00081537 0 
0.000720946 0.000381836 0 -0.000539809 -0.000292001 0 0.00052211 -0.000182426 0 
-6.41339e-05 -0.000753908 0 0.000638039 -0.000299861 0 -0.000605136 -0.000230182 0 
-3.41638e-05 -0.000145561 0 -0.000104037 0.000172396 0 -0.000808575 -0.00042774 0 
-0.000807207 -0.000465052 0 -0.00080817 0.000429771 0 -0.000806589 0.000469738 0 
-9.50634e-05 -0.000178909 0 0.000247777 0.000445058 0 1.48293e-05 -0.000814201 0 
-4.11555e-05 0.000140955 0 0.000276104 -0.000536845 0 0.000765969 -0.000436638 0 
0.000780871 -0.000362769 0 0.000424176 -0.000642018 0 0.00053413 -0.000368009 0 
-0.000416333 4.17911e-05 0 -0.000133891 -6.23822e-05 0 4.2574e-05 0.000206312 0 
[...]
POINT_DATA 626
VECTORS displacement float
-1.74394e-06 3.09547e-05 1.80551e-05
1.73565e-06 3.09738e-05 1.81002e-05
-2.59865e-05 1.6993e-05 1.80872e-05
-2.58412e-05 1.60331e-05 1.80518e-05
-2.77209e-05 1.39729e-05 1.80692e-05
-2.77139e-05 -1.40192e-05 1.80946e-05
-2.58124e-05 -1.60713e-05 1.8106e-05
-2.59827e-05 -1.70111e-05 1.81672e-05
-1.6774e-06 -3.09585e-05 1.80515e-05
1.75545e-06 -3.096e-05 1.8102e-05
2.59439e-05 -1.69808e-05 1.80436e-05
2.77173e-05 -1.39368e-05 1.80435e-05
2.76727e-05 1.39896e-05 1.80918e-05
2.59152e-05 1.69931e-05 1.80462e-05
0 0 0
-1.74394e-06 3.09547e-05 -1.80551e-05
1.73565e-06 3.09738e-05 -1.81002e-05
-2.59865e-05 1.6993e-05 -1.80872e-05
-2.58412e-05 1.60331e-05 -1.80518e-05
-2.77209e-05 1.39729e-05 -1.80692e-05
-2.77139e-05 -1.40192e-05 -1.80946e-05
-2.58124e-05 -1.60713e-05 -1.8106e-05
-2.59827e-05 -1.70111e-05 -1.81672e-05
-1.6774e-06 -3.09585e-05 -1.80515e-05
1.75545e-06 -3.096e-05 -1.8102e-05
2.59439e-05 -1.69808e-05 -1.80436e-05
2.77173e-05 -1.39368e-05 -1.80435e-05
2.76727e-05 1.39896e-05 -1.80918e-05
2.59152e-05 1.69931e-05 -1.80462e-05
0 0 0
2.48931e-08 3.01546e-05 1.80343e-05
-2.11408e-05 1.87126e-05 1.75499e-05
-1.72327e-05 1.9834e-05 1.6921e-05
-1.40071e-05 2.10545e-05 1.65551e-05
-1.1207e-05 2.26651e-05 1.65489e-05
-8.52415e-06 2.48331e-05 1.69015e-05
-5.56782e-06 2.7622e-05 1.75376e-05
-2.64501e-05 1.46793e-05 1.80336e-05
-2.6769e-05 -9.01164e-06 1.75775e-05
-2.58065e-05 -5.03555e-06 1.69261e-05
-2.52547e-05 -1.63623e-06 1.65715e-05
-2.52577e-05 1.60787e-06 1.65745e-05
-2.57988e-05 5.02294e-06 1.69243e-05
-2.67552e-05 8.98473e-06 1.7564e-05
-2.6437e-05 -1.47256e-05 1.80624e-05
-5.54108e-06 -2.76365e-05 1.75298e-05
-8.47667e-06 -2.48421e-05 1.69008e-05
-1.11702e-05 -2.26845e-05 1.65563e-05
-1.39707e-05 -2.10875e-05 1.65597e-05
-1.72151e-05 -1.98694e-05 1.69368e-05
-2.11344e-05 -1.87493e-05 1.75623e-05
8.98382e-08 -3.01394e-05 1.80295e-05
2.11242e-05 -1.8625e-05 1.75116e-05
1.72449e-05 -1.97624e-05 1.6873e-05
1.4034e-05 -2.10114e-05 1.65117e-05
1.12252e-05 -2.25932e-05 1.65463e-05
8.58131e-06 -2.47803e-05 1.68743e-05
5.6547e-06 -2.76267e-05 1.75351e-05
2.61248e-05 -1.50598e-05 1.80285e-05
2.67171e-05 8.93852e-06 1.75016e-05
2.57223e-05 5.04967e-06 1.69085e-05
2.52068e-05 1.62334e-06 1.65233e-05
2.5204e-05 -1.59946e-06 1.65216e-05
2.57509e-05 -4.99746e-06 1.68885e-05
2.66991e-05 -8.91727e-06 1.75098e-05
2.61079e-05 1.5061e-05 1.80255e-05
5.63316e-06 2.76181e-05 1.75097e-05
8.50869e-06 2.4807e-05 1.69113e-05
1.12172e-05 2.26413e-05 1.65295e-05
1.40047e-05 2.10224e-05 1.65249e-05
1.72219e-05 1.97936e-05 1.68852e-05
2.11152e-05 1.86346e-05 1.75255e-05
0 0 0
0 0 0
0 0 0
0 0 0
0 0 0
0 0 0
2.48931e-08 3.01546e-05 -1.80343e-05
-2.11408e-05 1.87126e-05 -1.75499e-05
-1.72327e-05 1.9834e-05 -1.6921e-05
-1.40071e-05 2.10545e-05 -1.65551e-05
-1.1207e-05 2.26651e-05 -1.65489e-05
-8.52415e-06 2.48331e-05 -1.69015e-05
-5.56782e-06 2.7622e-05 -1.75376e-05
-2.64501e-05 1.46793e-05 -1.80336e-05
-2.6769e-05 -9.01164e-06 -1.75775e-05
-2.58065e-05 -5.03555e-06 -1.69261e-05
-2.52547e-05 -1.63623e-06 -1.65715e-05
-2.52577e-05 1.60787e-06 -1.65745e-05
-2.57988e-05 5.02294e-06 -1.69243e-05
-2.67552e-05 8.98473e-06 -1.7564e-05
-2.6437e-05 -1.47256e-05 -1.80624e-05
-5.54108e-06 -2.76365e-05 -1.75298e-05
-8.47667e-06 -2.48421e-05 -1.69008e-05
-1.11702e-05 -2.26845e-05 -1.65563e-05
-1.39707e-05 -2.10875e-05 -1.65597e-05
-1.72151e-05 -1.98694e-05 -1.69368e-05
-2.11344e-05 -1.87493e-05 -1.75623e-05
8.98382e-08 -3.01394e-05 -1.80295e-05
2.11242e-05 -1.8625e-05 -1.75116e-05
1.72449e-05 -1.97624e-05 -1.6873e-05
1.4034e-05 -2.10114e-05 -1.65117e-05
1.12252e-05 -2.25932e-05 -1.65463e-05
8.58131e-06 -2.47803e-05 -1.68743e-05
5.6547e-06 -2.76267e-05 -1.75351e-05
2.61248e-05 -1.50598e-05 -1.80285e-05
2.67171e-05 8.93852e-06 -1.75016e-05
2.57223e-05 5.04967e-06 -1.69085e-05
2.52068e-05 1.62334e-06 -1.65233e-05
2.5204e-05 -1.59946e-06 -1.65216e-05
2.57509e-05 -4.99746e-06 -1.68885e-05
2.66991e-05 -8.91727e-06 -1.75098e-05
2.61079e-05 1.5061e-05 -1.80255e-05
5.63316e-06 2.76181e-05 -1.75097e-05
8.50869e-06 2.4807e-05 -1.69113e-05
1.12172e-05 2.26413e-05 -1.65295e-05
1.40047e-05 2.10224e-05 -1.65249e-05
1.72219e-05 1.97936e-05 -1.68852e-05
2.11152e-05 1.86346e-05 -1.75255e-05
0 0 0
0 0 0
0 0 0
0 0 0
0 0 0
0 0 0
1.79369e-06 8.58752e-07 4.55229e-06
1.73783e-06 -8.2512e-07 4.46084e-06
4.31957e-07 1.84964e-06 4.49516e-06
4.36101e-07 -1.78064e-06 4.35613e-06
-1.8475e-06 2.09633e-08 4.4224e-06
-1.12309e-06 -1.30888e-06 4.15104e-06
-1.15922e-06 1.30681e-06 4.19982e-06
-2.25133e-05 -7.28775e-06 1.7e-05
-2.21966e-05 7.37164e-06 1.69687e-05
-4.86048e-06 2.28987e-05 1.69371e-05
-4.85799e-06 -2.31318e-05 1.6964e-05
1.74214e-05 1.56356e-05 1.69299e-05
1.75689e-05 -1.55366e-05 1.69392e-05
2.10737e-05 3.16391e-06 1.63245e-05
-1.39533e-05 1.71514e-05 1.64785e-05
-1.35913e-05 -1.67414e-05 1.641e-05
7.76791e-06 1.98197e-05 1.63313e-05
7.68493e-06 -2.03101e-05 1.64026e-05
2.14725e-05 -3.44377e-06 1.64003e-05
-2.11029e-05 6.5881e-09 1.62468e-05
-2.24205e-05 1.09998e-05 1.74537e-05
-1.87511e-05 9.25478e-06 1.66272e-05
-1.79829e-05 5.7955e-06 1.60364e-05
-1.49841e-05 7.4484e-06 1.54864e-05
-1.42246e-05 4.30776e-06 1.48297e-05
-1.15327e-05 5.74394e-06 1.40947e-05
-1.08581e-05 3.06876e-06 1.33736e-05
-8.40056e-06 4.30491e-06 1.24043e-05
-9.05888e-06 7.01346e-06 1.34564e-05
-6.20415e-06 5.48855e-06 1.1689e-05
-6.82836e-06 8.24951e-06 1.30799e-05
-4.28143e-06 6.67496e-06 1.14505e-05
-4.80005e-06 9.61001e-06 1.30939e-05
-2.40089e-06 7.99341e-06 1.17229e-05
-2.81288e-06 1.11673e-05 1.34749e-05
-4.75414e-07 9.59537e-06 1.2501e-05
-7.38361e-07 1.2997e-05 1.41417e-05
1.7311e-06 1.15179e-05 1.3535e-05
-5.53474e-06 1.27005e-05 1.44369e-05
1.68509e-06 8.22404e-06 1.17475e-05
4.00421e-06 1.0121e-05 1.31509e-05
3.70538e-06 7.09801e-06 1.14782e-05
6.06746e-06 8.96675e-06 1.31133e-05
5.76687e-06 6.10684e-06 1.17356e-05
8.35815e-06 8.02039e-06 1.3492e-05
8.10572e-06 5.19531e-06 1.25003e-05
1.09541e-05 7.09711e-06 1.4147e-05
1.07461e-05 4.32283e-06 1.34991e-05
8.5306e-06 1.10376e-05 1.44608e-05
7.93776e-06 2.64377e-06 1.17274e-05
1.06461e-05 1.73722e-06 1.3104e-05
7.94875e-06 3.58763e-07 1.14556e-05
1.08065e-05 -7.59119e-07 1.31241e-05
8.11171e-06 -1.93782e-06 1.17091e-05
1.10984e-05 -3.31288e-06 1.34839e-05
8.46981e-06 -4.42402e-06 1.2444e-05
1.15038e-05 -6.00294e-06 1.41094e-05
8.95565e-06 -7.13817e-06 1.34281e-05
6.14758e-06 -5.49446e-06 1.16413e-05
6.64456e-06 -8.30094e-06 1.30183e-05
4.10524e-06 -6.58857e-06 1.13109e-05
4.5234e-06 -9.55095e-06 1.29883e-05
2.24231e-06 -7.85836e-06 1.15974e-05
2.48486e-06 -1.1002e-05 1.3351e-05
2.25293e-07 -9.37377e-06 1.23536e-05
3.30016e-07 -1.27699e-05 1.40338e-05
-1.91545e-06 -1.11508e-05 1.3377e-05
-1.84108e-06 -7.92169e-06 1.15822e-05
-4.16794e-06 -9.87494e-06 1.30851e-05
-3.81397e-06 -6.73056e-06 1.13171e-05
-6.34568e-06 -8.6621e-06 1.30993e-05
-5.89135e-06 -5.69806e-06 1.16284e-05
-8.4998e-06 -7.43587e-06 1.33797e-05
-8.16762e-06 -4.7281e-06 1.24086e-05
-1.10958e-05 -6.40283e-06 1.40699e-05
-4.3717e-06 -1.31233e-05 1.44337e-05
-1.0809e-05 -3.65072e-06 1.34392e-05
7.22619e-06 -1.13729e-05 1.4273e-05
-7.74178e-06 1.9827e-06 1.14929e-05
-1.32163e-05 1.03507e-06 1.4211e-05
1.72914e-06 1.5083e-05 1.49523e-05
1.37682e-05 4.62242e-07 1.43878e-05
1.38433e-05 6.10017e-06 1.49318e-05
-9.69416e-06 1.01964e-05 1.45326e-05
-5.41606e-06 -3.19769e-06 1.01822e-05
-1.17137e-05 -9.29744e-06 1.48893e-05
1.18825e-05 -8.76031e-06 1.47872e-05
1.47819e-05 -7.47368e-06 1.54034e-05
-1.39599e-05 -5.24395e-06 1.48618e-05
2.79585e-06 -1.45163e-05 1.47963e-05
4.24567e-07 -1.64996e-05 1.53979e-05
3.51847e-06 4.39698e-06 9.58119e-06
1.40107e-05 9.29916e-06 1.54917e-05
1.7931e-05 8.14505e-06 1.63007e-05
-1.56756e-05 1.13955e-05 1.62336e-05
-1.0941e-06 1.67693e-05 1.54954e-05
1.90688e-06 1.96218e-05 1.63111e-05
-2.09189e-06 5.22013e-06 9.59769e-06
5.554e-06 -7.84612e-07 9.59423e-06
3.58599e-06 -3.6836e-06 9.08206e-06
-1.77966e-06 -5.17863e-06 9.4497e-06
-2.2469e-05 -1.10109e-05 1.74745e-05
-1.87984e-05 -9.24152e-06 1.66512e-05
2.11481e-05 1.41649e-05 1.75057e-05
2.0754e-05 -1.43178e-05 1.74357e-05
-1.76462e-06 -2.54468e-05 1.75111e-05
-1.68215e-06 2.54108e-05 1.75157e-05
1.77132e-05 -1.1907e-05 1.66873e-05
2.06459e-05 -1.07512e-05 1.71161e-05
3.77569e-06 -1.89853e-05 1.61395e-05
7.68538e-07 -2.0346e-05 1.6483e-05
-1.94053e-05 -1.26507e-05 1.71433e-05
-1.37312e-05 -2.30695e-06 1.4472e-05
-1.65929e-05 -3.70147e-06 1.54777e-05
-1.03759e-05 -1.0964e-06 1.29522e-05
2.44523e-05 1.10729e-05 1.76518e-05
2.54978e-05 -1.24034e-05 1.78483e-05
2.64926e-06 2.67263e-05 1.76606e-05
2.52102e-06 -2.64139e-05 1.76295e-05
3.33949e-06 -2.30321e-05 1.70292e-05
-2.05392e-06 -1.83201e-05 1.5951e-05
4.0591e-06 2.37916e-05 1.71305e-05
2.26144e-05 8.37935e-06 1.71194e-05
4.61365e-06 1.73135e-05 1.57274e-05
1.44271e-05 -1.31196e-05 1.61375e-05
-1.57878e-05 -1.09848e-05 1.62147e-05
-1.67999e-05 -3.81432e-07 1.53775e-05
1.73061e-05 4.68753e-06 1.57258e-05
6.55224e-08 -6.38737e-06 1.02675e-05
1.74173e-06 -4.8485e-06 9.09257e-06
5.85051e-06 -2.93554e-06 1.03783e-05
-2.14444e-05 3.75055e-06 1.6459e-05
5.72941e-06 -1.62746e-05 1.55078e-05
9.08354e-06 -1.74992e-05 1.59976e-05
1.75723e-05 1.18818e-05 1.66724e-05
1.39944e-05 -1.63824e-05 1.64013e-05
1.07401e-05 -1.37891e-05 1.55502e-05
-3.548e-06 -4.22023e-06 9.50084e-06
5.39916e-06 1.13851e-06 9.49913e-06
5.21809e-06 3.2229e-06 1.00473e-05
-1.74979e-06 -2.83547e-05 1.7877e-05
1.89207e-06 5.29893e-06 9.58453e-06
-1.13824e-07 6.10505e-06 1.00388e-05
-3.78495e-06 4.12777e-06 9.57848e-06
-5.62272e-06 3.03421e-06 1.02853e-05
-5.16551e-06 1.04068e-06 9.21369e-06
-7.5273e-06 -6.17397e-08 1.11725e-05
-4.3344e-06 -8.10284e-07 8.38192e-06
-3.10861e-06 1.87235e-06 7.37412e-06
-2.20813e-05 -3.60779e-06 1.65159e-05
2.34064e-05 -1.56881e-05 1.78362e-05
-1.50721e-06 2.11681e-05 1.66821e-05
2.12618e-05 -8.45204e-08 1.62259e-05
1.76222e-05 -1.64681e-06 1.55815e-05
1.73478e-05 -4.94171e-06 1.57708e-05
2.18917e-05 -7.45118e-06 1.69137e-05
-2.31824e-05 -1.42547e-05 1.78328e-05
1.73248e-05 1.64888e-06 1.55086e-05
-1.734e-06 2.84733e-05 1.78942e-05
-4.22075e-07 3.68344e-06 7.49536e-06
2.37721e-05 1.57424e-05 1.78847e-05
-1.74975e-05 1.56424e-05 1.6975e-05
-1.06263e-05 -1.84663e-05 1.62552e-05
-1.00996e-05 -1.43424e-05 1.55718e-05
-7.50783e-06 -1.6095e-05 1.56222e-05
-7.32218e-06 -2.01207e-05 1.63954e-05
-1.07045e-05 1.85354e-05 1.62669e-05
-1.03474e-05 1.43842e-05 1.56195e-05
-7.7727e-06 2.04926e-05 1.64443e-05
-4.25303e-06 1.86098e-05 1.60531e-05
1.07598e-05 1.83456e-05 1.62263e-05
1.38918e-05 1.6935e-05 1.64311e-05
1.40421e-05 1.2973e-05 1.60514e-05
-7.36164e-06 1.62884e-05 1.56386e-05
1.05252e-05 1.45471e-05 1.56453e-05
7.74882e-06 1.60924e-05 1.5614e-05
-3.11649e-06 -1.89878e-06 7.39325e-06
-7.25771e-06 -1.24221e-05 1.46253e-05
3.00868e-06 4.03605e-08 6.60104e-06
4.87262e-06 1.35229e-05 1.46182e-05
1.40761e-05 -2.26041e-06 1.45706e-05
-1.72899e-05 -1.52168e-05 1.69456e-05
-1.73666e-05 2.42033e-06 1.55979e-05
-1.22048e-05 8.91202e-06 1.49436e-05
-7.7057e-06 -2.29254e-06 1.15548e-05
-1.24499e-05 1.18127e-05 1.55401e-05
-1.42737e-07 -3.75426e-06 7.55425e-06
2.73025e-06 2.2721e-06 7.252e-06
-2.00388e-06 -1.46506e-05 1.48082e-05
9.36518e-06 -1.00683e-05 1.43895e-05
1.38609e-05 3.15784e-06 1.45662e-05
-7.34011e-06 1.11995e-05 1.42604e-05
4.99727e-06 -1.27749e-05 1.43694e-05
1.1032e-05 1.04306e-05 1.49198e-05
-3.59648e-06 1.46854e-05 1.49082e-05
-4.63551e-06 -1.6617e-05 1.5549e-05
-1.95073e-05 1.28926e-05 1.71614e-05
-2.31271e-05 1.48583e-05 1.78436e-05
-1.29051e-05 -1.26862e-05 1.58127e-05
3.76083e-06 -1.58614e-06 7.90703e-06
1.76441e-06 2.92231e-06 7.08451e-06
-9.23058e-06 -1.06096e-05 1.45319e-05
1.72776e-06 -2.82318e-06 6.93114e-06
9.94738e-07 2.41171e-05 1.73086e-05
2.13682e-05 1.1194e-05 1.72988e-05
-1.46648e-05 -7.95347e-06 1.54855e-05
1.37082e-05 -4.78637e-06 1.46908e-05
-1.9099e-06 -2.17632e-05 1.68029e-05
1.80606e-05 -8.41916e-06 1.63409e-05
-1.66791e-05 -6.32864e-06 1.57826e-05
-4.32904e-07 -1.92234e-06 4.79853e-06
-1.80539e-06 2.99547e-06 7.17726e-06
-2.50523e-05 -1.29819e-05 1.79224e-05
-2.51275e-05 -1.45074e-05 1.80023e-05
-2.50454e-05 1.30338e-05 1.79062e-05
-2.51183e-05 1.46501e-05 1.79823e-05
-1.64847e-06 -3.12488e-06 7.20999e-06
6.32802e-06 1.13685e-05 1.40767e-05
5.33714e-07 -2.40864e-05 1.73024e-05
-5.22783e-07 1.80956e-06 4.64506e-06
7.40755e-06 -1.43438e-05 1.51525e-05
2.33031e-05 -1.32095e-05 1.7729e-05
2.3633e-05 -1.05377e-05 1.7491e-05
1.19886e-05 -1.82112e-05 1.62935e-05
1.47303e-05 -1.01468e-05 1.57958e-05
-1.00272e-05 1.00126e-06 1.27548e-05
-1.74003e-06 -8.1591e-07 4.72351e-06
7.69072e-07 3.70839e-06 7.57324e-06
2.3431e-06 -1.99718e-06 6.55537e-06
2.01568e-05 5.8979e-06 1.64538e-05
5.07015e-06 2.05962e-05 1.64962e-05
3.42118e-07 -2.76803e-05 1.78542e-05
-1.73124e-06 7.09118e-07 4.60638e-06
-3.21154e-06 6.23054e-07 6.82422e-06
3.57725e-06 1.47543e-06 7.63671e-06
4.99227e-07 2.83241e-05 1.79274e-05
2.47606e-05 1.37342e-05 1.79186e-05
-2.03286e-05 1.5536e-05 1.74292e-05
1.17872e-06 1.36449e-06 4.45991e-06
-2.06399e-05 -1.57286e-05 1.75278e-05
-1.89991e-05 -2.32221e-06 1.59464e-05
-1.95594e-05 -5.58506e-06 1.63324e-05
9.05692e-07 -3.24779e-06 7.00619e-06
-4.36608e-06 -1.97895e-05 1.6322e-05
-7.93738e-06 1.38346e-05 1.51013e-05
1.16576e-06 -1.3042e-06 4.33935e-06
1.19346e-05 -1.12285e-05 1.52924e-05
6.13313e-06 -2.26964e-05 1.68207e-05
-1.45223e-05 1.43555e-05 1.63238e-05
7.92918e-06 1.33214e-05 1.49482e-05
1.79369e-06 8.58752e-07 -4.55229e-06
1.73783e-06 -8.2512e-07 -4.46084e-06
4.31957e-07 1.84964e-06 -4.49516e-06
4.36101e-07 -1.78064e-06 -4.35613e-06
-1.8475e-06 2.09633e-08 -4.4224e-06
-1.12309e-06 -1.30888e-06 -4.15104e-06
-1.15922e-06 1.30681e-06 -4.19982e-06
-2.25133e-05 -7.28775e-06 -1.7e-05
-2.21966e-05 7.37164e-06 -1.69687e-05
-4.86048e-06 2.28987e-05 -1.69371e-05
-4.85799e-06 -2.31318e-05 -1.6964e-05
1.74214e-05 1.56356e-05 -1.69299e-05
1.75689e-05 -1.55366e-05 -1.69392e-05
2.10737e-05 3.16391e-06 -1.63245e-05
-1.39533e-05 1.71514e-05 -1.64785e-05
-1.35913e-05 -1.67414e-05 -1.641e-05
7.76791e-06 1.98197e-05 -1.63313e-05
7.68493e-06 -2.03101e-05 -1.64026e-05
2.14725e-05 -3.44377e-06 -1.64003e-05
-2.11029e-05 6.5881e-09 -1.62468e-05
-2.24205e-05 1.09998e-05 -1.74537e-05
-1.87511e-05 9.25478e-06 -1.66272e-05
-1.79829e-05 5.7955e-06 -1.60364e-05
-1.49841e-05 7.4484e-06 -1.54864e-05
-1.42246e-05 4.30776e-06 -1.48297e-05
-1.15327e-05 5.74394e-06 -1.40947e-05
-1.08581e-05 3.06876e-06 -1.33736e-05
-8.40056e-06 4.30491e-06 -1.24043e-05
-9.05888e-06 7.01346e-06 -1.34564e-05
-6.20415e-06 5.48855e-06 -1.1689e-05
-6.82836e-06 8.24951e-06 -1.30799e-05
-4.28143e-06 6.67496e-06 -1.14505e-05
-4.80005e-06 9.61001e-06 -1.30939e-05
-2.40089e-06 7.99341e-06 -1.17229e-05
-2.81288e-06 1.11673e-05 -1.34749e-05
-4.75414e-07 9.59537e-06 -1.2501e-05
-7.38361e-07 1.2997e-05 -1.41417e-05
1.7311e-06 1.15179e-05 -1.3535e-05
-5.53474e-06 1.27005e-05 -1.44369e-05
1.68509e-06 8.22404e-06 -1.17475e-05
4.00421e-06 1.0121e-05 -1.31509e-05
3.70538e-06 7.09801e-06 -1.14782e-05
6.06746e-06 8.96675e-06 -1.31133e-05
5.76687e-06 6.10684e-06 -1.17356e-05
8.35815e-06 8.02039e-06 -1.3492e-05
8.10572e-06 5.19531e-06 -1.25003e-05
1.09541e-05 7.09711e-06 -1.4147e-05
1.07461e-05 4.32283e-06 -1.34991e-05
8.5306e-06 1.10376e-05 -1.44608e-05
7.93776e-06 2.64377e-06 -1.17274e-05
1.06461e-05 1.73722e-06 -1.3104e-05
7.94875e-06 3.58763e-07 -1.14556e-05
1.08065e-05 -7.59119e-07 -1.31241e-05
8.11171e-06 -1.93782e-06 -1.17091e-05
1.10984e-05 -3.31288e-06 -1.34839e-05
8.46981e-06 -4.42402e-06 -1.2444e-05
1.15038e-05 -6.00294e-06 -1.41094e-05
8.95565e-06 -7.13817e-06 -1.34281e-05
6.14758e-06 -5.49446e-06 -1.16413e-05
6.64456e-06 -8.30094e-06 -1.30183e-05
4.10524e-06 -6.58857e-06 -1.13109e-05
4.5234e-06 -9.55095e-06 -1.29883e-05
2.24231e-06 -7.85836e-06 -1.15974e-05
2.48486e-06 -1.1002e-05 -1.3351e-05
2.25293e-07 -9.37377e-06 -1.23536e-05
3.30016e-07 -1.27699e-05 -1.40338e-05
-1.91545e-06 -1.11508e-05 -1.3377e-05
-1.84108e-06 -7.92169e-06 -1.15822e-05
-4.16794e-06 -9.87494e-06 -1.30851e-05
-3.81397e-06 -6.73056e-06 -1.13171e-05
-6.34568e-06 -8.6621e-06 -1.30993e-05
-5.89135e-06 -5.69806e-06 -1.16284e-05
-8.4998e-06 -7.43587e-06 -1.33797e-05
-8.16762e-06 -4.7281e-06 -1.24086e-05
-1.10958e-05 -6.40283e-06 -1.40699e-05
-4.3717e-06 -1.31233e-05 -1.44337e-05
-1.0809e-05 -3.65072e-06 -1.34392e-05
7.22619e-06 -1.13729e-05 -1.4273e-05
-7.74178e-06 1.9827e-06 -1.14929e-05
-1.32163e-05 1.03507e-06 -1.4211e-05
1.72914e-06 1.5083e-05 -1.49523e-05
1.37682e-05 4.62242e-07 -1.43878e-05
1.38433e-05 6.10017e-06 -1.49318e-05
-9.69416e-06 1.01964e-05 -1.45326e-05
-5.41606e-06 -3.19769e-06 -1.01822e-05
-1.17137e-05 -9.29744e-06 -1.48893e-05
1.18825e-05 -8.76031e-06 -1.47872e-05
1.47819e-05 -7.47368e-06 -1.54034e-05
-1.39599e-05 -5.24395e-06 -1.48618e-05
2.79585e-06 -1.45163e-05 -1.47963e-05
4.24567e-07 -1.64996e-05 -1.53979e-05
3.51847e-06 4.39698e-06 -9.58119e-06
1.40107e-05 9.29916e-06 -1.54917e-05
1.7931e-05 8.14505e-06 -1.63007e-05
-1.56756e-05 1.13955e-05 -1.62336e-05
-1.0941e-06 1.67693e-05 -1.54954e-05
1.90688e-06 1.96218e-05 -1.63111e-05
-2.09189e-06 5.22013e-06 -9.59769e-06
5.554e-06 -7.84612e-07 -9.59423e-06
3.58599e-06 -3.6836e-06 -9.08206e-06
-1.77966e-06 -5.17863e-06 -9.4497e-06
-2.2469e-05 -1.10109e-05 -1.74745e-05
-1.87984e-05 -9.24152e-06 -1.66512e-05
2.11481e-05 1.41649e-05 -1.75057e-05
2.0754e-05 -1.43178e-05 -1.74357e-05
-1.76462e-06 -2.54468e-05 -1.75111e-05
-1.68215e-06 2.54108e-05 -1.75157e-05
1.77132e-05 -1.1907e-05 -1.66873e-05
2.06459e-05 -1.07512e-05 -1.71161e-05
3.77569e-06 -1.89853e-05 -1.61395e-05
7.68538e-07 -2.0346e-05 -1.6483e-05
-1.94053e-05 -1.26507e-05 -1.71433e-05
-1.37312e-05 -2.30695e-06 -1.4472e-05
-1.65929e-05 -3.70147e-06 -1.54777e-05
-1.03759e-05 -1.0964e-06 -1.29522e-05
2.44523e-05 1.10729e-05 -1.76518e-05
2.54978e-05 -1.24034e-05 -1.78483e-05
2.64926e-06 2.67263e-05 -1.76606e-05
2.52102e-06 -2.64139e-05 -1.76295e-05
3.33949e-06 -2.30321e-05 -1.70292e-05
-2.05392e-06 -1.83201e-05 -1.5951e-05
4.0591e-06 2.37916e-05 -1.71305e-05
2.26144e-05 8.37935e-06 -1.71194e-05
4.61365e-06 1.73135e-05 -1.57274e-05
1.44271e-05 -1.31196e-05 -1.61375e-05
-1.57878e-05 -1.09848e-05 -1.62147e-05
-1.67999e-05 -3.81432e-07 -1.53775e-05
1.73061e-05 4.68753e-06 -1.57258e-05
6.55224e-08 -6.38737e-06 -1.02675e-05
1.74173e-06 -4.8485e-06 -9.09257e-06
5.85051e-06 -2.93554e-06 -1.03783e-05
-2.14444e-05 3.75055e-06 -1.6459e-05
5.72941e-06 -1.62746e-05 -1.55078e-05
9.08354e-06 -1.74992e-05 -1.59976e-05
1.75723e-05 1.18818e-05 -1.66724e-05
1.39944e-05 -1.63824e-05 -1.64013e-05
1.07401e-05 -1.37891e-05 -1.55502e-05
-3.548e-06 -4.22023e-06 -9.50084e-06
5.39916e-06 1.13851e-06 -9.49913e-06
5.21809e-06 3.2229e-06 -1.00473e-05
-1.74979e-06 -2.83547e-05 -1.7877e-05
1.89207e-06 5.29893e-06 -9.58453e-06
-1.13824e-07 6.10505e-06 -1.00388e-05
-3.78495e-06 4.12777e-06 -9.57848e-06
-5.62272e-06 3.03421e-06 -1.02853e-05
-5.16551e-06 1.04068e-06 -9.21369e-06
-7.5273e-06 -6.17397e-08 -1.11725e-05
-4.3344e-06 -8.10284e-07 -8.38192e-06
-3.10861e-06 1.87235e-06 -7.37412e-06
-2.20813e-05 -3.60779e-06 -1.65159e-05
2.34064e-05 -1.56881e-05 -1.78362e-05
-1.50721e-06 2.11681e-05 -1.66821e-05
2.12618e-05 -8.45204e-08 -1.62259e-05
1.76222e-05 -1.64681e-06 -1.55815e-05
1.73478e-05 -4.94171e-06 -1.57708e-05
2.18917e-05 -7.45118e-06 -1.69137e-05
-2.31824e-05 -1.42547e-05 -1.78328e-05
1.73248e-05 1.64888e-06 -1.55086e-05
-1.734e-06 2.84733e-05 -1.78942e-05