# vtk DataFile Version 3.0
vtk output at time 70
ASCII
DATASET UNSTRUCTURED_GRID
POINTS 626 float
-3.68058e-05 0.000978749 0 3.68058e-05 0.000978749 0 -0.000829194 0.00052125 0 
-0.0008235 0.0005 0 -0.000866 0.0004575 0 -0.000866 -0.0004575 0 
-0.0008235 -0.0005 0 -0.000829194 -0.00052125 0 -3.68058e-05 -0.000978749 0 
3.68058e-05 -0.000978749 0 0.000829194 -0.00052125 0 0.000866 -0.0004575 0 
0.000866 0.0004575 0 0.000829194 0.00052125 0 8.5e-05 0 0 
-3.68058e-05 0.000978749 -0.001 3.68058e-05 0.000978749 -0.001 -0.000829194 0.00052125 -0.001 
-0.0008235 0.0005 -0.001 -0.000866 0.0004575 -0.001 -0.000866 -0.0004575 -0.001 
-0.0008235 -0.0005 -0.001 -0.000829194 -0.00052125 -0.001 -3.68058e-05 -0.000978749 -0.001 
3.68058e-05 -0.000978749 -0.001 0.000829194 -0.00052125 -0.001 0.000866 -0.0004575 -0.001 
0.000866 0.0004575 -0.001 0.000829194 0.00052125 -0.001 8.5e-05 0 -0.001 
8.46223e-17 0.0009575 0 -0.000715996 0.000586607 0 -0.000602797 0.000651965 0 
-0.000489599 0.000717321 0 -0.000376401 0.000782678 0 -0.000263202 0.000848036 0 
-0.000150004 0.000913393 0 -0.000835948 0.000469948 0 -0.000866 -0.000326786 0 
-0.000866 -0.000196071 0 -0.000866 -6.53571e-05 0 -0.000866 6.53571e-05 0 
-0.000866 0.000196071 0 -0.000866 0.000326786 0 -0.000835948 -0.000469948 0 
-0.000150004 -0.000913393 0 -0.000263202 -0.000848036 0 -0.000376401 -0.000782678 0 
-0.000489599 -0.000717321 0 -0.000602797 -0.000651965 0 -0.000715996 -0.000586607 0 
8.47648e-17 -0.0009575 0 0.000715996 -0.000586607 0 0.000602797 -0.000651965 0 
0.000489599 -0.000717321 0 0.000376401 -0.000782678 0 0.000263202 -0.000848036 0 
0.000150004 -0.000913393 0 0.000829194 -0.00047875 0 0.000866 0.000326786 0 
0.000866 0.000196071 0 0.000866 6.53571e-05 0 0.000866 -6.53571e-05 0 
0.000866 -0.000196071 0 0.000866 -0.000326786 0 0.000829194 0.00047875 0 
0.000150004 0.000913393 0 0.000263202 0.000848036 0 0.000376401 0.000782678 0 
0.000489599 0.000717321 0 0.000602797 0.000651965 0 0.000715996 0.000586607 0 
5.29966e-05 6.64557e-05 0 -1.89143e-05 8.28689e-05 0 -7.65824e-05 3.68801e-05 0 
-7.65824e-05 -3.68801e-05 0 -1.89143e-05 -8.28689e-05 0 5.29966e-05 -6.64557e-05 0 
8.46223e-17 0.0009575 -0.001 -0.000715996 0.000586607 -0.001 -0.000602797 0.000651965 -0.001 
-0.000489599 0.000717321 -0.001 -0.000376401 0.000782678 -0.001 -0.000263202 0.000848036 -0.001 
-0.000150004 0.000913393 -0.001 -0.000835948 0.000469948 -0.001 -0.000866 -0.000326786 -0.001 
-0.000866 -0.000196071 -0.001 -0.000866 -6.53571e-05 -0.001 -0.000866 6.53571e-05 -0.001 
-0.000866 0.000196071 -0.001 -0.000866 0.000326786 -0.001 -0.000835948 -0.000469948 -0.001 
-0.000150004 -0.000913393 -0.001 -0.000263202 -0.000848036 -0.001 -0.000376401 -0.000782678 -0.001 
-0.000489599 -0.000717321 -0.001 -0.000602797 -0.000651965 -0.001 -0.000715996 -0.000586607 -0.001 
8.47648e-17 -0.0009575 -0.001 0.000715996 -0.000586607 -0.001 0.000602797 -0.000651965 -0.001 
0.000489599 -0.000717321 -0.001 0.000376401 -0.000782678 -0.001 0.000263202 -0.000848036 -0.001 
0.000150004 -0.000913393 -0.001 0.000829194 -0.00047875 -0.001 0.000866 0.000326786 -0.001 
0.000866 0.000196071 -0.001 0.000866 6.53571e-05 -0.001 0.000866 -6.53571e-05 -0.001 
0.000866 -0.000196071 -0.001 0.000866 -0.000326786 -0.001 0.000829194 0.00047875 -0.001 
0.000150004 0.000913393 -0.001 0.000263202 0.000848036 -0.001 0.000376401 0.000782678 -0.001 
0.000489599 0.000717321 -0.001 0.000602797 0.000651965 -0.001 0.000715996 0.000586607 -0.001 
5.29966e-05 6.64557e-05 -0.001 -1.89143e-05 8.28689e-05 -0.001 -7.65824e-05 3.68801e-05 -0.001 
-7.65824e-05 -3.68801e-05 -0.001 -1.89143e-05 -8.28689e-05 -0.001 5.29966e-05 -6.64557e-05 -0.001 
0.000131234 6.38474e-05 0 0.00012964 -6.2443e-05 0 3.13827e-05 0.0001394 0 
3.12554e-05 -0.000136939 0 -0.000140461 8.25467e-19 0 -8.90565e-05 -0.000102707 0 
-9.04142e-05 0.000102872 0 -0.000765769 -0.00025965 0 -0.000756873 0.000262774 0 
-0.00015609 0.000787505 0 -0.000155807 -0.00079355 0 0.000605069 0.000528035 0 
0.000608694 -0.00052497 0 0.000744069 0.000116929 0 -0.000494418 0.000596218 0 
-0.000483866 -0.000584648 0 0.000269496 0.000702219 0 0.000263201 -0.000717324 0 
0.000754429 -0.000127825 0 -0.000748858 5.84659e-07 0 -0.000747838 0.000373886 0 
-0.0006542 0.000324842 0 -0.000645137 0.000210123 0 -0.000550884 0.000274171 0 
-0.000538857 0.000163195 0 -0.00045062 0.000224461 0 -0.000438393 0.000123907 0 
-0.000354088 0.000181668 0 -0.000363908 0.000282171 0 -0.000270361 0.000239477 0 
-0.000279138 0.000337653 0 -0.000188888 0.000294791 0 -0.000196448 0.000393271 0 
-0.000104767 0.000348259 0 -0.000113332 0.000449012 0 -2.01066e-05 0.000403223 0 
-2.89189e-05 0.000507105 0 6.9524e-05 0.000461596 0 -0.000213644 0.000490203 0 
7.33757e-05 0.000357726 0 0.000163331 0.00041299 0 0.000163359 0.000313022 0 
0.000248077 0.000366368 0 0.000250914 0.000265758 0 0.000335709 0.000322266 0 
0.000340555 0.000218148 0 0.000427299 0.000276717 0 0.000431508 0.000173093 0 
0.000328731 0.000425633 0 0.00034586 0.000114823 0 0.000435362 7.05241e-05 0 
0.000350892 1.5455e-05 0 0.000441547 -3.11896e-05 0 0.000353547 -8.47783e-05 0 
0.000445767 -0.000132964 0 0.000356135 -0.000186358 0 0.000449094 -0.000234674 0 
0.000359978 -0.000287876 0 0.00026856 -0.000240545 0 0.000271895 -0.000341045 0 
0.000181792 -0.00029305 0 0.00018533 -0.000392851 0 9.75701e-05 -0.00034483 0 
9.98764e-05 -0.000444884 0 8.75116e-06 -0.000396343 0 1.20916e-05 -0.000500496 0 
-7.83929e-05 -0.000449843 0 -8.1471e-05 -0.000347249 0 -0.000171566 -0.000403733 0 
-0.000169889 -0.000298891 0 -0.000259867 -0.000354132 0 -0.000257696 -0.000249137 0 
-0.00034313 -0.000299896 0 -0.000344514 -0.000199127 0 -0.000434309 -0.000250039 0 
-0.000169832 -0.000505815 0 -0.000435227 -0.000146227 0 0.000280331 -0.000442424 0 
-0.000340889 8.76793e-05 0 -0.000515252 4.06198e-05 0 6.50491e-05 0.000568253 0 
0.00053278 1.74743e-05 0 0.000522071 0.000229831 0 -0.00037162 0.000391659 0 
-0.000255272 -0.000150439 0 -0.000442893 -0.000350705 0 0.000450067 -0.000332559 0 
0.000545175 -0.000276306 0 -0.000527797 -0.000197598 0 0.000105306 -0.000551033 0 
1.45836e-05 -0.000609147 0 0.00017145 0.000214453 0 0.000515525 0.000341711 0 
0.000636086 0.000290368 0 -0.000558657 0.000404468 0 -4.01232e-05 0.000616718 0 
6.60192e-05 0.000696422 0 -0.000101806 0.0002546 0 0.000271142 -3.88908e-05 0 
0.000179455 -0.00018534 0 -8.79553e-05 -0.000254307 0 -0.000749267 -0.000373451 0 
-0.000655941 -0.000323397 0 0.000709746 0.000466718 0 0.000698426 -0.000473086 0 
-5.25801e-05 -0.00084886 0 -4.93005e-05 0.000848038 0 0.000617396 -0.000413362 0 
0.000702056 -0.000369817 0 0.000131459 -0.000679171 0 2.48171e-05 -0.000715924 0 
-0.000664217 -0.00042729 0 -0.000528828 -8.80444e-05 0 -0.000611101 -0.000136672 0 
-0.000426972 -4.45841e-05 0 0.000800669 0.000378216 0 0.000821144 -0.000415062 0 
7.2799e-05 0.00088254 0 6.81831e-05 -0.00087503 0 0.000104963 -0.000788946 0 
-7.40696e-05 -0.000660054 0 0.000126061 0.000809943 0 0.000764361 0.000295682 0 
0.000166862 0.000630623 0 0.000516462 -0.00046707 0 -0.000563585 -0.000389606 0 
-0.000622598 -1.40238e-05 0 0.000629891 0.000171529 0 2.5614e-06 -0.000299794 0 
8.6901e-05 -0.00024329 0 0.000272045 -0.000136982 0 -0.00075148 0.000138321 0 
0.000209366 -0.000599589 0 0.000324913 -0.000630055 0 0.000614044 0.00041245 0 
0.00049651 -0.000573327 0 0.000394822 -0.000507321 0 -0.000173714 -0.000206698 0 
0.000264897 5.63722e-05 0 0.000247997 0.000152811 0 -4.63327e-05 -0.000920208 0 
9.18688e-05 0.000258626 0 -5.54111e-06 0.000290558 0 -0.000184219 0.000201484 0 
-0.000263559 0.000142267 0 -0.000256427 5.13624e-05 0 -0.000336894 -2.06179e-06 0 
-0.000228499 -4.2388e-05 0 -0.00017589 0.000106626 0 -0.000769947 -0.000133367 0 
0.000767591 -0.000500293 0 -5.05874e-05 0.000737978 0 0.000754456 -3.51771e-06 0 
0.00064691 -6.15298e-05 0 0.000630483 -0.00018134 0 0.000749187 -0.000265543 0 
-0.000760805 -0.000462521 0 0.000638155 6.09315e-05 0 -4.46661e-05 0.000922995 0 
-2.37945e-05 0.000207237 0 0.000776979 0.000500181 0 -0.000605691 0.000527596 0 
-0.000377914 -0.000653727 0 -0.000372325 -0.000526022 0 -0.000275829 -0.000589621 0 
-0.000254285 -0.000710579 0 -0.000379307 0.000656222 0 -0.000379818 0.00052718 0 
-0.000266817 0.000721555 0 -0.000150544 0.000668174 0 0.000381963 0.00065079 0 
0.000493113 0.000590432 0 0.000505439 0.000463708 0 -0.000269094 0.000596608 0 
0.000385815 0.000532045 0 0.000283599 0.0005899 0 -0.000176405 -0.000108505 0 
-0.000278769 -0.000475415 0 0.000185395 2.33014e-06 0 0.000186773 0.000517571 0 
0.000540032 -8.68444e-05 0 -0.000600694 -0.000514877 0 -0.00063703 8.98033e-05 0 
-0.000459677 0.000335729 0 -0.000338836 -0.000100751 0 -0.000457327 0.000432721 0 
-8.72007e-06 -0.000210238 0 0.000156073 0.000129496 0 -7.70692e-05 -0.000555049 0 
0.00036091 -0.000389728 0 0.000531628 0.000120564 0 -0.000285451 0.000435562 0 
0.000192719 -0.000494604 0 0.00041642 0.00039368 0 -0.000135943 0.000554637 0 
-0.000170665 -0.000610079 0 -0.000666304 0.000434981 0 -0.000758736 0.000479231 0 
-0.000470189 -0.000458901 0 0.000203433 -8.59809e-05 0 0.000101846 0.000170114 0 
-0.00035513 -0.00040726 0 0.000100184 -0.000165831 0 2.96286e-05 0.00081537 0 
0.000720946 0.000381836 0 -0.000539809 -0.000292001 0 0.00052211 -0.000182426 0 
-6.41339e-05 -0.000753908 0 0.000638039 -0.000299861 0 -0.000605136 -0.000230182 0 
-3.41638e-05 -0.000145561 0 -0.000104037 0.000172396 0 -0.000808575 -0.00042774 0 
-0.000807207 -0.000465052 0 -0.00080817 0.000429771 0 -0.000806589 0.000469738 0 
-9.50634e-05 -0.000178909 0 0.000247777 0.000445058 0 1.48293e-05 -0.000814201 0 
-4.11555e-05 0.000140955 0 0.000276104 -0.000536845 0 0.000765969 -0.000436638 0 
0.000780871 -0.000362769 0 0.000424176 -0.000642018 0 0.00053413 -0.000368009 0 
-0.000416333 4.17911e-05 0 -0.000133891 -6.23822e-05 0 4.2574e-05 0.000206312 0 
[...]
POINT_DATA 626
VECTORS displacement float
-1.74393e-06 3.09586e-05 1.80569e-05
1.73562e-06 3.09776e-05 1.8102e-05
-2.59899e-05 1.69949e-05 1.8089e-05
-2.58444e-05 1.6035e-05 1.80535e-05
-2.77242e-05 1.39749e-05 1.8071e-05
-2.77171e-05 -1.40212e-05 1.80964e-05
-2.58156e-05 -1.60732e-05 1.81077e-05
-2.59861e-05 -1.70129e-05 1.81689e-05
-1.67739e-06 -3.09623e-05 1.80533e-05
1.75542e-06 -3.09638e-05 1.81038e-05
2.59472e-05 -1.69827e-05 1.80454e-05
2.77206e-05 -1.39388e-05 1.80453e-05
2.7676e-05 1.39915e-05 1.80935e-05
2.59185e-05 1.6995e-05 1.80479e-05
0 0 0
-1.74393e-06 3.09586e-05 -1.80569e-05
1.73562e-06 3.09776e-05 -1.8102e-05
-2.59899e-05 1.69949e-05 -1.8089e-05
-2.58444e-05 1.6035e-05 -1.80535e-05
-2.77242e-05 1.39749e-05 -1.8071e-05
-2.77171e-05 -1.40212e-05 -1.80964e-05
-2.58156e-05 -1.60732e-05 -1.81077e-05
-2.59861e-05 -1.70129e-05 -1.81689e-05
-1.67739e-06 -3.09623e-05 -1.80533e-05
1.75542e-06 -3.09638e-05 -1.81038e-05
2.59472e-05 -1.69827e-05 -1.80454e-05
2.77206e-05 -1.39388e-05 -1.80453e-05
2.7676e-05 1.39915e-05 -1.80935e-05
2.59185e-05 1.6995e-05 -1.80479e-05
0 0 0
2.48768e-08 3.01584e-05 1.80361e-05
-2.11441e-05 1.87148e-05 1.75518e-05
-1.72355e-05 1.98368e-05 1.69231e-05
-1.40094e-05 2.10577e-05 1.65574e-05
-1.12086e-05 2.26687e-05 1.65512e-05
-8.52516e-06 2.4837e-05 1.69037e-05
-5.56821e-06 2.76259e-05 1.75395e-05
-2.64533e-05 1.46811e-05 1.80354e-05
-2.67726e-05 -9.01329e-06 1.75795e-05
-2.58103e-05 -5.03661e-06 1.69283e-05
-2.52587e-05 -1.63659e-06 1.65738e-05
-2.52616e-05 1.60823e-06 1.65768e-05
-2.58026e-05 5.02399e-06 1.69265e-05
-2.67588e-05 8.98636e-06 1.7566e-05
-2.64402e-05 -1.47275e-05 1.80641e-05
-5.54146e-06 -2.76404e-05 1.75318e-05
-8.47768e-06 -2.4846e-05 1.6903e-05
-1.11719e-05 -2.26881e-05 1.65586e-05
-1.3973e-05 -2.10907e-05 1.6562e-05
-1.7218e-05 -1.98721e-05 1.6939e-05
-2.11376e-05 -1.87516e-05 1.75643e-05
8.98167e-08 -3.01431e-05 1.80313e-05
2.11274e-05 -1.86273e-05 1.75136e-05
1.72477e-05 -1.97652e-05 1.68752e-05
1.40363e-05 -2.10146e-05 1.6514e-05
1.12268e-05 -2.25968e-05 1.65486e-05
8.5823e-06 -2.47842e-05 1.68765e-05
5.65505e-06 -2.76306e-05 1.75371e-05
2.61281e-05 -1.50617e-05 1.80303e-05
2.67207e-05 8.94018e-06 1.75036e-05
2.57261e-05 5.05073e-06 1.69107e-05
2.52108e-05 1.62371e-06 1.65256e-05
2.52079e-05 -1.59981e-06 1.65239e-05
2.57548e-05 -4.99851e-06 1.68906e-05
2.67027e-05 -8.91892e-06 1.75118e-05
2.61111e-05 1.50628e-05 1.80273e-05
5.63351e-06 2.7622e-05 1.75117e-05
8.50968e-06 2.48109e-05 1.69135e-05
1.12188e-05 2.26449e-05 1.65318e-05
1.40069e-05 2.10256e-05 1.65272e-05
1.72247e-05 1.97964e-05 1.68874e-05
2.11184e-05 1.86369e-05 1.75275e-05
0 0 0
0 0 0
0 0 0
0 0 0
0 0 0
0 0 0
2.48768e-08 3.01584e-05 -1.80361e-05
-2.11441e-05 1.87148e-05 -1.75518e-05
-1.72355e-05 1.98368e-05 -1.69231e-05
-1.40094e-05 2.10577e-05 -1.65574e-05
-1.12086e-05 2.26687e-05 -1.65512e-05
-8.52516e-06 2.4837e-05 -1.69037e-05
-5.56821e-06 2.76259e-05 -1.75395e-05
-2.64533e-05 1.46811e-05 -1.80354e-05
-2.67726e-05 -9.01329e-06 -1.75795e-05
-2.58103e-05 -5.03661e-06 -1.69283e-05
-2.52587e-05 -1.63659e-06 -1.65738e-05
-2.52616e-05 1.60823e-06 -1.65768e-05
-2.58026e-05 5.02399e-06 -1.69265e-05
-2.67588e-05 8.98636e-06 -1.7566e-05
-2.64402e-05 -1.47275e-05 -1.80641e-05
-5.54146e-06 -2.76404e-05 -1.75318e-05
-8.47768e-06 -2.4846e-05 -1.6903e-05
-1.11719e-05 -2.26881e-05 -1.65586e-05
-1.3973e-05 -2.10907e-05 -1.6562e-05
-1.7218e-05 -1.98721e-05 -1.6939e-05
-2.11376e-05 -1.87516e-05 -1.75643e-05
8.98167e-08 -3.01431e-05 -1.80313e-05
2.11274e-05 -1.86273e-05 -1.75136e-05
1.72477e-05 -1.97652e-05 -1.68752e-05
1.40363e-05 -2.10146e-05 -1.6514e-05
1.12268e-05 -2.25968e-05 -1.65486e-05
8.5823e-06 -2.47842e-05 -1.68765e-05
5.65505e-06 -2.76306e-05 -1.75371e-05
2.61281e-05 -1.50617e-05 -1.80303e-05
2.67207e-05 8.94018e-06 -1.75036e-05
2.57261e-05 5.05073e-06 -1.69107e-05
2.52108e-05 1.62371e-06 -1.65256e-05
2.52079e-05 -1.59981e-06 -1.65239e-05
2.57548e-05 -4.99851e-06 -1.68906e-05
2.67027e-05 -8.91892e-06 -1.75118e-05
2.61111e-05 1.50628e-05 -1.80273e-05
5.63351e-06 2.7622e-05 -1.75117e-05
8.50968e-06 2.48109e-05 -1.69135e-05
1.12188e-05 2.26449e-05 -1.65318e-05
1.40069e-05 2.10256e-05 -1.65272e-05
1.72247e-05 1.97964e-05 -1.68874e-05
2.11184e-05 1.86369e-05 -1.75275e-05
0 0 0
0 0 0
0 0 0
0 0 0
0 0 0
0 0 0
1.7939e-06 8.58852e-07 4.553e-06
1.73803e-06 -8.25216e-07 4.46153e-06
4.32007e-07 1.84985e-06 4.49585e-06
4.36151e-07 -1.78085e-06 4.3568e-06
-1.84771e-06 2.09665e-08 4.42308e-06
-1.12322e-06 -1.30903e-06 4.15168e-06
-1.15935e-06 1.30696e-06 4.20046e-06
-2.25166e-05 -7.28898e-06 1.70022e-05
-2.21999e-05 7.37287e-06 1.69708e-05
-4.86108e-06 2.29022e-05 1.69392e-05
-4.85858e-06 -2.31353e-05 1.69661e-05
1.74241e-05 1.56378e-05 1.69321e-05
1.75717e-05 -1.55388e-05 1.69413e-05
2.1077e-05 3.16448e-06 1.63268e-05
-1.39555e-05 1.7154e-05 1.64807e-05
-1.35935e-05 -1.6744e-05 1.64123e-05
7.76906e-06 1.98229e-05 1.63336e-05
7.68605e-06 -2.03134e-05 1.64049e-05
2.14759e-05 -3.44439e-06 1.64025e-05
-2.11063e-05 6.58822e-09 1.62491e-05
-2.24237e-05 1.10015e-05 1.74557e-05
-1.87539e-05 9.25619e-06 1.66293e-05
-1.79857e-05 5.79643e-06 1.60386e-05
-1.49864e-05 7.44955e-06 1.54886e-05
-1.42268e-05 4.30844e-06 1.48319e-05
-1.15345e-05 5.74483e-06 1.40969e-05
-1.08598e-05 3.06923e-06 1.33757e-05
-8.40184e-06 4.30556e-06 1.24063e-05
-9.06029e-06 7.01455e-06 1.34585e-05
-6.20509e-06 5.48938e-06 1.16909e-05
-6.82942e-06 8.25079e-06 1.3082e-05
-4.28208e-06 6.67596e-06 1.14523e-05
-4.8008e-06 9.6115e-06 1.3096e-05
-2.40126e-06 7.99462e-06 1.17248e-05
-2.81332e-06 1.11691e-05 1.3477e-05
-4.75491e-07 9.59684e-06 1.2503e-05
-7.38482e-07 1.29991e-05 1.41439e-05
1.73136e-06 1.15197e-05 1.35371e-05
-5.53562e-06 1.27025e-05 1.44392e-05
1.68535e-06 8.22529e-06 1.17494e-05
4.00483e-06 1.01225e-05 1.3153e-05
3.70594e-06 7.09908e-06 1.14801e-05
6.0684e-06 8.96815e-06 1.31154e-05
5.76774e-06 6.10777e-06 1.17374e-05
8.35946e-06 8.02165e-06 1.34942e-05
8.10696e-06 5.19611e-06 1.25023e-05
1.09558e-05 7.09823e-06 1.41491e-05
1.07477e-05 4.32351e-06 1.35012e-05
8.53195e-06 1.10393e-05 1.4463e-05
7.93896e-06 2.64417e-06 1.17293e-05
1.06478e-05 1.73749e-06 1.31061e-05
7.94995e-06 3.58818e-07 1.14574e-05
1.08082e-05 -7.59237e-07 1.31262e-05
8.11294e-06 -1.93811e-06 1.1711e-05
1.11001e-05 -3.3134e-06 1.3486e-05
8.47111e-06 -4.4247e-06 1.2446e-05
1.15056e-05 -6.00388e-06 1.41116e-05
8.95704e-06 -7.13929e-06 1.34302e-05
6.1485e-06 -5.49529e-06 1.16432e-05
6.64559e-06 -8.30223e-06 1.30203e-05
4.10585e-06 -6.58956e-06 1.13128e-05
4.5241e-06 -9.55244e-06 1.29904e-05
2.24265e-06 -7.85954e-06 1.15992e-05
2.48524e-06 -1.10037e-05 1.33531e-05
2.25323e-07 -9.37521e-06 1.23556e-05
3.30061e-07 -1.27719e-05 1.4036e-05
-1.91576e-06 -1.11525e-05 1.33791e-05
-1.84136e-06 -7.92288e-06 1.1584e-05
-4.16859e-06 -9.87648e-06 1.30871e-05
-3.81455e-06 -6.73157e-06 1.13189e-05
-6.34667e-06 -8.66345e-06 1.31014e-05
-5.89224e-06 -5.69892e-06 1.16303e-05
-8.50113e-06 -7.43702e-06 1.33818e-05
-8.16887e-06 -4.72882e-06 1.24106e-05
-1.10975e-05 -6.40383e-06 1.40721e-05
-4.37239e-06 -1.31254e-05 1.44359e-05
-1.08106e-05 -3.65128e-06 1.34413e-05
7.22733e-06 -1.13747e-05 1.42752e-05
-7.74294e-06 1.983e-06 1.14948e-05
-1.32183e-05 1.03523e-06 1.42132e-05
1.7294e-06 1.50853e-05 1.49545e-05
1.37704e-05 4.62318e-07 1.43901e-05
1.38455e-05 6.10113e-06 1.4934e-05
-9.6957e-06 1.0198e-05 1.45348e-05
-5.41685e-06 -3.19815e-06 1.01838e-05
-1.17156e-05 -9.29888e-06 1.48915e-05
1.18844e-05 -8.76168e-06 1.47894e-05
1.47842e-05 -7.47486e-06 1.54057e-05
-1.39621e-05 -5.24477e-06 1.4864e-05
2.79628e-06 -1.45186e-05 1.47985e-05
4.24621e-07 -1.65022e-05 1.54001e-05
3.51897e-06 4.39761e-06 9.58273e-06
1.40129e-05 9.30061e-06 1.54939e-05
1.79337e-05 8.14633e-06 1.63029e-05
-1.56781e-05 1.13972e-05 1.62358e-05
-1.09427e-06 1.67719e-05 1.54976e-05
1.90714e-06 1.96248e-05 1.63133e-05
-2.09219e-06 5.22088e-06 9.59923e-06
5.55479e-06 -7.84724e-07 9.59578e-06
3.58649e-06 -3.68412e-06 9.08353e-06
-1.77991e-06 -5.17936e-06 9.45122e-06
-2.24722e-05 -1.10126e-05 1.74764e-05
-1.88012e-05 -9.24293e-06 1.66533e-05
2.11511e-05 1.41669e-05 1.75077e-05
2.0757e-05 -1.43197e-05 1.74377e-05
-1.76478e-06 -2.54504e-05 1.7513e-05
-1.6823e-06 2.54144e-05 1.75177e-05
1.77159e-05 -1.19088e-05 1.66894e-05
2.0649e-05 -1.07528e-05 1.71182e-05
3.77622e-06 -1.89883e-05 1.61418e-05
7.68625e-07 -2.03491e-05 1.64851e-05
-1.94082e-05 -1.26525e-05 1.71453e-05
-1.37334e-05 -2.30732e-06 1.44742e-05
-1.65955e-05 -3.70207e-06 1.54799e-05
-1.03775e-05 -1.09657e-06 1.29542e-05
2.44556e-05 1.10746e-05 1.76537e-05
2.55011e-05 -1.24052e-05 1.78501e-05
2.64944e-06 2.673e-05 1.76625e-05
2.52118e-06 -2.64176e-05 1.76314e-05
3.33987e-06 -2.30356e-05 1.70313e-05
-2.05422e-06 -1.83229e-05 1.59532e-05
4.05953e-06 2.37951e-05 1.71326e-05
2.26177e-05 8.38073e-06 1.71215e-05
4.61434e-06 1.73162e-05 1.57297e-05
1.44294e-05 -1.31216e-05 1.61397e-05
-1.57903e-05 -1.09865e-05 1.62169e-05
-1.68026e-05 -3.81497e-07 1.53797e-05
1.73088e-05 4.68829e-06 1.5728e-05
6.55295e-08 -6.3883e-06 1.02692e-05
1.74197e-06 -4.84918e-06 9.09403e-06
5.85137e-06 -2.93597e-06 1.03799e-05
-2.14477e-05 3.75121e-06 1.64612e-05
5.7303e-06 -1.62772e-05 1.55101e-05
9.08497e-06 -1.7502e-05 1.59999e-05
1.7575e-05 1.18835e-05 1.66746e-05
1.39966e-05 -1.63849e-05 1.64036e-05
1.07418e-05 -1.37913e-05 1.55525e-05
-3.5485e-06 -4.22083e-06 9.50237e-06
5.39993e-06 1.13867e-06 9.50066e-06
5.21885e-06 3.22337e-06 1.00489e-05
-1.74988e-06 -2.83585e-05 1.78788e-05
1.89234e-06 5.29969e-06 9.58607e-06
-1.13843e-07 6.10594e-06 1.00404e-05
-3.78549e-06 4.12836e-06 9.58002e-06
-5.62354e-06 3.03465e-06 1.0287e-05
-5.16624e-06 1.04083e-06 9.21516e-06
-7.52842e-06 -6.17493e-08 1.11743e-05
-4.33499e-06 -8.10393e-07 8.38326e-06
-3.10902e-06 1.8726e-06 7.37529e-06
-2.20847e-05 -3.60845e-06 1.65182e-05
2.34096e-05 -1.569e-05 1.78381e-05
-1.50741e-06 2.11713e-05 1.66843e-05
2.12652e-05 -8.45358e-08 1.62282e-05
1.7625e-05 -1.64709e-06 1.55838e-05
1.73506e-05 -4.94251e-06 1.5773e-05
2.1895e-05 -7.45241e-06 1.69158e-05
-2.31855e-05 -1.42565e-05 1.78346e-05
1.73275e-05 1.64916e-06 1.55109e-05
-1.73409e-06 2.8477e-05 1.7896e-05
-4.22131e-07 3.68393e-06 7.49655e-06
2.37754e-05 1.57444e-05 1.78865e-05
-1.75002e-05 1.56446e-05 1.69772e-05
-1.0628e-05 -1.84692e-05 1.62575e-05
-1.01013e-05 -1.43447e-05 1.55741e-05
-7.50902e-06 -1.60975e-05 1.56245e-05
-7.32327e-06 -2.01238e-05 1.63977e-05
-1.07062e-05 1.85383e-05 1.62692e-05
-1.03491e-05 1.43865e-05 1.56218e-05
-7.77385e-06 2.04958e-05 1.64466e-05
-4.25366e-06 1.86127e-05 1.60553e-05
1.07615e-05 1.83485e-05 1.62286e-05
1.3894e-05 1.69376e-05 1.64334e-05
1.40443e-05 1.2975e-05 1.60536e-05
-7.3628e-06 1.6291e-05 1.56409e-05
1.05269e-05 1.45495e-05 1.56476e-05
7.75003e-06 1.6095e-05 1.56164e-05
-3.1169e-06 -1.89903e-06 7.39442e-06
-7.25887e-06 -1.24241e-05 1.46275e-05
3.00907e-06 4.03658e-08 6.60208e-06
4.87338e-06 1.3525e-05 1.46204e-05
1.40784e-05 -2.26077e-06 1.45728e-05
-1.72926e-05 -1.5219e-05 1.69477e-05
-1.73694e-05 2.42072e-06 1.56002e-05
-1.22067e-05 8.9134e-06 1.49458e-05
-7.70685e-06 -2.29288e-06 1.15566e-05
-1.24519e-05 1.18146e-05 1.55423e-05
-1.42757e-07 -3.75475e-06 7.55545e-06
2.73061e-06 2.2724e-06 7.25315e-06
-2.0042e-06 -1.46529e-05 1.48104e-05
9.36666e-06 -1.00699e-05 1.43917e-05
1.38631e-05 3.15835e-06 1.45684e-05
-7.34128e-06 1.12013e-05 1.42626e-05
4.99805e-06 -1.27769e-05 1.43716e-05
1.10337e-05 1.04322e-05 1.4922e-05
-3.59705e-06 1.46877e-05 1.49104e-05
-4.63623e-06 -1.66197e-05 1.55512e-05
-1.95102e-05 1.28944e-05 1.71635e-05
-2.31303e-05 1.48602e-05 1.78454e-05
-1.29071e-05 -1.26882e-05 1.58149e-05
3.76134e-06 -1.58635e-06 7.90829e-06
1.76464e-06 2.92269e-06 7.08563e-06
-9.23204e-06 -1.06113e-05 1.45342e-05
1.72798e-06 -2.82355e-06 6.93224e-06
9.94825e-07 2.41206e-05 1.73106e-05
2.13713e-05 1.11956e-05 1.73008e-05
-1.46671e-05 -7.9547e-06 1.54877e-05
1.37104e-05 -4.78713e-06 1.4693e-05
-1.91016e-06 -2.17665e-05 1.6805e-05
1.80633e-05 -8.42047e-06 1.6343e-05
-1.66817e-05 -6.32964e-06 1.57848e-05
-4.32957e-07 -1.92257e-06 4.79927e-06
-1.80563e-06 2.99586e-06 7.17839e-06
-2.50555e-05 -1.29838e-05 1.79243e-05
-2.51307e-05 -1.45093e-05 1.8004e-05
-2.50487e-05 1.30357e-05 1.7908e-05
-2.51216e-05 1.4652e-05 1.79841e-05
-1.64869e-06 -3.12529e-06 7.21114e-06
6.32902e-06 1.13703e-05 1.40789e-05
5.33754e-07 -2.40899e-05 1.73044e-05
-5.22847e-07 1.80978e-06 4.64578e-06
7.40872e-06 -1.43461e-05 1.51548e-05
2.33063e-05 -1.32113e-05 1.77309e-05
2.36362e-05 -1.05393e-05 1.7493e-05
1.19905e-05 -1.8214e-05 1.62958e-05
1.47326e-05 -1.01483e-05 1.5798e-05
-1.00287e-05 1.00141e-06 1.27568e-05
-1.74024e-06 -8.16008e-07 4.72424e-06
7.69174e-07 3.70888e-06 7.57444e-06
2.3434e-06 -1.99744e-06 6.5564e-06
2.01599e-05 5.89888e-06 1.6456e-05
5.07084e-06 2.05994e-05 1.64984e-05
3.42124e-07 -2.76841e-05 1.7856e-05
-1.73145e-06 7.09203e-07 4.60709e-06
-3.21196e-06 6.23134e-07 6.8253e-06
3.57773e-06 1.47563e-06 7.63793e-06
4.9924e-07 2.83279e-05 1.79293e-05
2.47639e-05 1.37361e-05 1.79204e-05
-2.03316e-05 1.55381e-05 1.74312e-05
1.17886e-06 1.36465e-06 4.4606e-06
-2.06429e-05 -1.57306e-05 1.75297e-05
-1.90021e-05 -2.32261e-06 1.59486e-05
-1.95624e-05 -5.58598e-06 1.63347e-05
9.05809e-07 -3.24821e-06 7.0073e-06
-4.3667e-06 -1.97926e-05 1.63242e-05
-7.93865e-06 1.38368e-05 1.51035e-05
1.1659e-06 -1.30435e-06 4.34002e-06
1.19365e-05 -1.12303e-05 1.52946e-05
6.13389e-06 -2.26999e-05 1.68229e-05
-1.45246e-05 1.43577e-05 1.63261e-05
7.93044e-06 1.33235e-05 1.49504e-05
1.7939e-06 8.58852e-07 -4.553e-06
1.73803e-06 -8.25216e-07 -4.46153e-06
4.32007e-07 1.84985e-06 -4.49585e-06
4.36151e-07 -1.78085e-06 -4.3568e-06
-1.84771e-06 2.09665e-08 -4.42308e-06
-1.12322e-06 -1.30903e-06 -4.15168e-06
-1.15935e-06 1.30696e-06 -4.20046e-06
-2.25166e-05 -7.28898e-06 -1.70022e-05
-2.21999e-05 7.37287e-06 -1.69708e-05
-4.86108e-06 2.29022e-05 -1.69392e-05
-4.85858e-06 -2.31353e-05 -1.69661e-05
1.74241e-05 1.56378e-05 -1.69321e-05
1.75717e-05 -1.55388e-05 -1.69413e-05
2.1077e-05 3.16448e-06 -1.63268e-05
-1.39555e-05 1.7154e-05 -1.64807e-05
-1.35935e-05 -1.6744e-05 -1.64123e-05
7.76906e-06 1.98229e-05 -1.63336e-05
7.68605e-06 -2.03134e-05 -1.64049e-05
2.14759e-05 -3.44439e-06 -1.64025e-05
-2.11063e-05 6.58822e-09 -1.62491e-05
-2.24237e-05 1.10015e-05 -1.74557e-05
-1.87539e-05 9.25619e-06 -1.66293e-05
-1.79857e-05 5.79643e-06 -1.60386e-05
-1.49864e-05 7.44955e-06 -1.54886e-05
-1.42268e-05 4.30844e-06 -1.48319e-05
-1.15345e-05 5.74483e-06 -1.40969e-05
-1.08598e-05 3.06923e-06 -1.33757e-05
-8.40184e-06 4.30556e-06 -1.24063e-05
-9.06029e-06 7.01455e-06 -1.34585e-05
-6.20509e-06 5.48938e-06 -1.16909e-05
-6.82942e-06 8.25079e-06 -1.3082e-05
-4.28208e-06 6.67596e-06 -1.14523e-05
-4.8008e-06 9.6115e-06 -1.3096e-05
-2.40126e-06 7.99462e-06 -1.17248e-05
-2.81332e-06 1.11691e-05 -1.3477e-05
-4.75491e-07 9.59684e-06 -1.2503e-05
-7.38482e-07 1.29991e-05 -1.41439e-05
1.73136e-06 1.15197e-05 -1.35371e-05
-5.53562e-06 1.27025e-05 -1.44392e-05
1.68535e-06 8.22529e-06 -1.17494e-05
4.00483e-06 1.01225e-05 -1.3153e-05
3.70594e-06 7.09908e-06 -1.14801e-05
6.0684e-06 8.96815e-06 -1.31154e-05
5.76774e-06 6.10777e-06 -1.17374e-05
8.35946e-06 8.02165e-06 -1.34942e-05
8.10696e-06 5.19611e-06 -1.25023e-05
1.09558e-05 7.09823e-06 -1.41491e-05
1.07477e-05 4.32351e-06 -1.35012e-05
8.53195e-06 1.10393e-05 -1.4463e-05
7.93896e-06 2.64417e-06 -1.17293e-05
1.06478e-05 1.73749e-06 -1.31061e-05
7.94995e-06 3.58818e-07 -1.14574e-05
1.08082e-05 -7.59237e-07 -1.31262e-05
8.11294e-06 -1.93811e-06 -1.1711e-05
1.11001e-05 -3.3134e-06 -1.3486e-05
8.47111e-06 -4.4247e-06 -1.2446e-05
1.15056e-05 -6.00388e-06 -1.41116e-05
8.95704e-06 -7.13929e-06 -1.34302e-05
6.1485e-06 -5.49529e-06 -1.16432e-05
6.64559e-06 -8.30223e-06 -1.30203e-05
4.10585e-06 -6.58956e-06 -1.13128e-05
4.5241e-06 -9.55244e-06 -1.29904e-05
2.24265e-06 -7.85954e-06 -1.15992e-05
2.48524e-06 -1.10037e-05 -1.33531e-05
2.25323e-07 -9.37521e-06 -1.23556e-05
3.30061e-07 -1.27719e-05 -1.4036e-05
-1.91576e-06 -1.11525e-05 -1.33791e-05
-1.84136e-06 -7.92288e-06 -1.1584e-05
-4.16859e-06 -9.87648e-06 -1.30871e-05
-3.81455e-06 -6.73157e-06 -1.13189e-05
-6.34667e-06 -8.66345e-06 -1.31014e-05
-5.89224e-06 -5.69892e-06 -1.16303e-05
-8.50113e-06 -7.43702e-06 -1.33818e-05
-8.16887e-06 -4.72882e-06 -1.24106e-05
-1.10975e-05 -6.40383e-06 -1.40721e-05
-4.37239e-06 -1.31254e-05 -1.44359e-05
-1.08106e-05 -3.65128e-06 -1.34413e-05
7.22733e-06 -1.13747e-05 -1.42752e-05
-7.74294e-06 1.983e-06 -1.14948e-05
-1.32183e-05 1.03523e-06 -1.42132e-05
1.7294e-06 1.50853e-05 -1.49545e-05
1.37704e-05 4.62318e-07 -1.43901e-05
1.38455e-05 6.10113e-06 -1.4934e-05
-9.6957e-06 1.0198e-05 -1.45348e-05
-5.41685e-06 -3.19815e-06 -1.01838e-05
-1.17156e-05 -9.29888e-06 -1.48915e-05
1.18844e-05 -8.76168e-06 -1.47894e-05
1.47842e-05 -7.47486e-06 -1.54057e-05
-1.39621e-05 -5.24477e-06 -1.4864e-05
2.79628e-06 -1.45186e-05 -1.47985e-05
4.24621e-07 -1.65022e-05 -1.54001e-05
3.51897e-06 4.39761e-06 -9.58273e-06
1.40129e-05 9.30061e-06 -1.54939e-05
1.79337e-05 8.14633e-06 -1.63029e-05
-1.56781e-05 1.13972e-05 -1.62358e-05
-1.09427e-06 1.67719e-05 -1.54976e-05
1.90714e-06 1.96248e-05 -1.63133e-05
-2.09219e-06 5.22088e-06 -9.59923e-06
5.55479e-06 -7.84724e-07 -9.59578e-06
3.58649e-06 -3.68412e-06 -9.08353e-06
-1.77991e-06 -5.17936e-06 -9.45122e-06
-2.24722e-05 -1.10126e-05 -1.74764e-05
-1.88012e-05 -9.24293e-06 -1.66533e-05
2.11511e-05 1.41669e-05 -1.75077e-05
2.0757e-05 -1.43197e-05 -1.74377e-05
-1.76478e-06 -2.54504e-05 -1.7513e-05
-1.6823e-06 2.54144e-05 -1.75177e-05
1.77159e-05 -1.19088e-05 -1.66894e-05
2.0649e-05 -1.07528e-05 -1.71182e-05
3.77622e-06 -1.89883e-05 -1.61418e-05
7.68625e-07 -2.03491e-05 -1.64851e-05
-1.94082e-05 -1.26525e-05 -1.71453e-05
-1.37334e-05 -2.30732e-06 -1.44742e-05
-1.65955e-05 -3.70207e-06 -1.54799e-05
-1.03775e-05 -1.09657e-06 -1.29542e-05
2.44556e-05 1.10746e-05 -1.76537e-05
2.55011e-05 -1.24052e-05 -1.78501e-05
2.64944e-06 2.673e-05 -1.76625e-05
2.52118e-06 -2.64176e-05 -1.76314e-05
3.33987e-06 -2.30356e-05 -1.70313e-05
-2.05422e-06 -1.83229e-05 -1.59532e-05
4.05953e-06 2.37951e-05 -1.71326e-05
2.26177e-05 8.38073e-06 -1.71215e-05
4.61434e-06 1.73162e-05 -1.57297e-05
1.44294e-05 -1.31216e-05 -1.61397e-05
-1.57903e-05 -1.09865e-05 -1.62169e-05
-1.68026e-05 -3.81497e-07 -1.53797e-05
1.73088e-05 4.68829e-06 -1.5728e-05
6.55295e-08 -6.3883e-06 -1.02692e-05
1.74197e-06 -4.84918e-06 -9.09403e-06
5.85137e-06 -2.93597e-06 -1.03799e-05
-2.14477e-05 3.75121e-06 -1.64612e-05
5.7303e-06 -1.62772e-05 -1.55101e-05
9.08497e-06 -1.7502e-05 -1.59999e-05
1.7575e-05 1.18835e-05 -1.66746e-05
1.39966e-05 -1.63849e-05 -1.64036e-05
1.07418e-05 -1.37913e-05 -1.55525e-05
-3.5485e-06 -4.22083e-06 -9.50237e-06
5.39993e-06 1.13867e-06 -9.50066e-06
5.21885e-06 3.22337e-06 -1.00489e-05
-1.74988e-06 -2.83585e-05 -1.78788e-05
1.89234e-06 5.29969e-06 -9.58607e-06
-1.13843e-07 6.10594e-06 -1.00404e-05
-3.78549e-06 4.12836e-06 -9.58002e-06
-5.62354e-06 3.03465e-06 -1.0287e-05
-5.16624e-06 1.04083e-06 -9.21516e-06
-7.52842e-06 -6.17493e-08 -1.11743e-05
-4.33499e-06 -8.10393e-07 -8.38326e-06
-3.10902e-06 1.8726e-06 -7.37529e-06
-2.20847e-05 -3.60845e-06 -1.65182e-05
2.34096e-05 -1.569e-05 -1.78381e-05
-1.50741e-06 2.11713e-05 -1.66843e-05
2.12652e-05 -8.45358e-08 -1.62282e-05
1.7625e-05 -1.64709e-06 -1.55838e-05
1.73506e-05 -4.94251e-06 -1.5773e-05
2.1895e-05 -7.45241e-06 -1.69158e-05
-2.31855e-05 -1.42565e-05 -1.78346e-05
1.73275e-05 1.64916e-06 -1.55109e-05
-1.73409e-06 2.8477e-05 -1.7896e-05