# vtk DataFile Version 3.0
vtk output at time 200
ASCII
DATASET UNSTRUCTURED_GRID
POINTS 626 float
-3.68058e-05 0.000978749 0 3.68058e-05 0.000978749 0 -0.000829194 0.00052125 0 
-0.0008235 0.0005 0 -0.000866 0.0004575 0 -0.000866 -0.0004575 0 
-0.0008235 -0.0005 0 -0.000829194 -0.00052125 0 -3.68058e-05 -0.000978749 0 
3.68058e-05 -0.000978749 0 0.000829194 -0.00052125 0 0.000866 -0.0004575 0 
0.000866 0.0004575 0 0.000829194 0.00052125 0 8.5e-05 0 0 
-3.68058e-05 0.000978749 -0.001 3.68058e-05 0.000978749 -0.001 -0.000829194 0.00052125 -0.001 
-0.0008235 0.0005 -0.001 -0.000866 0.0004575 -0.001 -0.000866 -0.0004575 -0.001 
-0.0008235 -0.0005 -0.001 -0.000829194 -0.00052125 -0.001 -3.68058e-05 -0.000978749 -0.001 
3.68058e-05 -0.000978749 -0.001 0.000829194 -0.00052125 -0.001 0.000866 -0.0004575 -0.001 
0.000866 0.0004575 -0.001 0.000829194 0.00052125 -0.001 8.5e-05 0 -0.001 
8.46223e-17 0.0009575 0 -0.000715996 0.000586607 0 -0.000602797 0.000651965 0 
-0.000489599 0.000717321 0 -0.000376401 0.000782678 0 -0.000263202 0.000848036 0 
-0.000150004 0.000913393 0 -0.000835948 0.000469948 0 -0.000866 -0.000326786 0 
-0.000866 -0.000196071 0 -0.000866 -6.53571e-05 0 -0.000866 6.53571e-05 0 
-0.000866 0.000196071 0 -0.000866 0.000326786 0 -0.000835948 -0.000469948 0 
-0.000150004 -0.000913393 0 -0.000263202 -0.000848036 0 -0.000376401 -0.000782678 0 
-0.000489599 -0.000717321 0 -0.000602797 -0.000651965 0 -0.000715996 -0.000586607 0 
8.47648e-17 -0.0009575 0 0.000715996 -0.000586607 0 0.000602797 -0.000651965 0 
0.000489599 -0.000717321 0 0.000376401 -0.000782678 0 0.000263202 -0.000848036 0 
0.000150004 -0.000913393 0 0.000829194 -0.00047875 0 0.000866 0.000326786 0 
0.000866 0.000196071 0 0.000866 6.53571e-05 0 0.000866 -6.53571e-05 0 
0.000866 -0.000196071 0 0.000866 -0.000326786 0 0.000829194 0.00047875 0 
0.000150004 0.000913393 0 0.000263202 0.000848036 0 0.000376401 0.000782678 0 
0.000489599 0.000717321 0 0.000602797 0.000651965 0 0.000715996 0.000586607 0 
5.29966e-05 6.64557e-05 0 -1.89143e-05 8.28689e-05 0 -7.65824e-05 3.68801e-05 0 
-7.65824e-05 -3.68801e-05 0 -1.89143e-05 -8.28689e-05 0 5.29966e-05 -6.64557e-05 0 
8.46223e-17 0.0009575 -0.001 -0.000715996 0.000586607 -0.001 -0.000602797 0.000651965 -0.001 
-0.000489599 0.000717321 -0.001 -0.000376401 0.000782678 -0.001 -0.000263202 0.000848036 -0.001 
-0.000150004 0.000913393 -0.001 -0.000835948 0.000469948 -0.001 -0.000866 -0.000326786 -0.001 
-0.000866 -0.000196071 -0.001 -0.000866 -6.53571e-05 -0.001 -0.000866 6.53571e-05 -0.001 
-0.000866 0.000196071 -0.001 -0.000866 0.000326786 -0.001 -0.000835948 -0.000469948 -0.001 
-0.000150004 -0.000913393 -0.001 -0.000263202 -0.000848036 -0.001 -0.000376401 -0.000782678 -0.001 
-0.000489599 -0.000717321 -0.001 -0.000602797 -0.000651965 -0.001 -0.000715996 -0.000586607 -0.001 
8.47648e-17 -0.0009575 -0.001 0.000715996 -0.000586607 -0.001 0.000602797 -0.000651965 -0.001 
0.000489599 -0.000717321 -0.001 0.000376401 -0.000782678 -0.001 0.000263202 -0.000848036 -0.001 
0.000150004 -0.000913393 -0.001 0.000829194 -0.00047875 -0.001 0.000866 0.000326786 -0.001 
0.000866 0.000196071 -0.001 0.000866 6.53571e-05 -0.001 0.000866 -6.53571e-05 -0.001 
0.000866 -0.000196071 -0.001 0.000866 -0.000326786 -0.001 0.000829194 0.00047875 -0.001 
0.000150004 0.000913393 -0.001 0.000263202 0.000848036 -0.001 0.000376401 0.000782678 -0.001 
0.000489599 0.000717321 -0.001 0.000602797 0.000651965 -0.001 0.000715996 0.000586607 -0.001 
5.29966e-05 6.64557e-05 -0.001 -1.89143e-05 8.28689e-05 -0.001 -7.65824e-05 3.68801e-05 -0.001 
-7.65824e-05 -3.68801e-05 -0.001 -1.89143e-05 -8.28689e-05 -0.001 5.29966e-05 -6.64557e-05 -0.001 
0.000131234 6.38474e-05 0 0.00012964 -6.2443e-05 0 3.13827e-05 0.0001394 0 
3.12554e-05 -0.000136939 0 -0.000140461 8.25467e-19 0 -8.90565e-05 -0.000102707 0 
-9.04142e-05 0.000102872 0 -0.000765769 -0.00025965 0 -0.000756873 0.000262774 0 
-0.00015609 0.000787505 0 -0.000155807 -0.00079355 0 0.000605069 0.000528035 0 
0.000608694 -0.00052497 0 0.000744069 0.000116929 0 -0.000494418 0.000596218 0 
-0.000483866 -0.000584648 0 0.000269496 0.000702219 0 0.000263201 -0.000717324 0 
0.000754429 -0.000127825 0 -0.000748858 5.84659e-07 0 -0.000747838 0.000373886 0 
-0.0006542 0.000324842 0 -0.000645137 0.000210123 0 -0.000550884 0.000274171 0 
-0.000538857 0.000163195 0 -0.00045062 0.000224461 0 -0.000438393 0.000123907 0 
-0.000354088 0.000181668 0 -0.000363908 0.000282171 0 -0.000270361 0.000239477 0 
-0.000279138 0.000337653 0 -0.000188888 0.000294791 0 -0.000196448 0.000393271 0 
-0.000104767 0.000348259 0 -0.000113332 0.000449012 0 -2.01066e-05 0.000403223 0 
-2.89189e-05 0.000507105 0 6.9524e-05 0.000461596 0 -0.000213644 0.000490203 0 
7.33757e-05 0.000357726 0 0.000163331 0.00041299 0 0.000163359 0.000313022 0 
0.000248077 0.000366368 0 0.000250914 0.000265758 0 0.000335709 0.000322266 0 
0.000340555 0.000218148 0 0.000427299 0.000276717 0 0.000431508 0.000173093 0 
0.000328731 0.000425633 0 0.00034586 0.000114823 0 0.000435362 7.05241e-05 0 
0.000350892 1.5455e-05 0 0.000441547 -3.11896e-05 0 0.000353547 -8.47783e-05 0 
0.000445767 -0.000132964 0 0.000356135 -0.000186358 0 0.000449094 -0.000234674 0 
0.000359978 -0.000287876 0 0.00026856 -0.000240545 0 0.000271895 -0.000341045 0 
0.000181792 -0.00029305 0 0.00018533 -0.000392851 0 9.75701e-05 -0.00034483 0 
9.98764e-05 -0.000444884 0 8.75116e-06 -0.000396343 0 1.20916e-05 -0.000500496 0 
-7.83929e-05 -0.000449843 0 -8.1471e-05 -0.000347249 0 -0.000171566 -0.000403733 0 
-0.000169889 -0.000298891 0 -0.000259867 -0.000354132 0 -0.000257696 -0.000249137 0 
-0.00034313 -0.000299896 0 -0.000344514 -0.000199127 0 -0.000434309 -0.000250039 0 
-0.000169832 -0.000505815 0 -0.000435227 -0.000146227 0 0.000280331 -0.000442424 0 
-0.000340889 8.76793e-05 0 -0.000515252 4.06198e-05 0 6.50491e-05 0.000568253 0 
0.00053278 1.74743e-05 0 0.000522071 0.000229831 0 -0.00037162 0.000391659 0 
-0.000255272 -0.000150439 0 -0.000442893 -0.000350705 0 0.000450067 -0.000332559 0 
0.000545175 -0.000276306 0 -0.000527797 -0.000197598 0 0.000105306 -0.000551033 0 
1.45836e-05 -0.000609147 0 0.00017145 0.000214453 0 0.000515525 0.000341711 0 
0.000636086 0.000290368 0 -0.000558657 0.000404468 0 -4.01232e-05 0.000616718 0 
6.60192e-05 0.000696422 0 -0.000101806 0.0002546 0 0.000271142 -3.88908e-05 0 
0.000179455 -0.00018534 0 -8.79553e-05 -0.000254307 0 -0.000749267 -0.000373451 0 
-0.000655941 -0.000323397 0 0.000709746 0.000466718 0 0.000698426 -0.000473086 0 
-5.25801e-05 -0.00084886 0 -4.93005e-05 0.000848038 0 0.000617396 -0.000413362 0 
0.000702056 -0.000369817 0 0.000131459 -0.000679171 0 2.48171e-05 -0.000715924 0 
-0.000664217 -0.00042729 0 -0.000528828 -8.80444e-05 0 -0.000611101 -0.000136672 0 
-0.000426972 -4.45841e-05 0 0.000800669 0.000378216 0 0.000821144 -0.000415062 0 
7.2799e-05 0.00088254 0 6.81831e-05 -0.00087503 0 0.000104963 -0.000788946 0 
-7.40696e-05 -0.000660054 0 0.000126061 0.000809943 0 0.000764361 0.000295682 0 
0.000166862 0.000630623 0 0.000516462 -0.00046707 0 -0.000563585 -0.000389606 0 
-0.000622598 -1.40238e-05 0 0.000629891 0.000171529 0 2.5614e-06 -0.000299794 0 
8.6901e-05 -0.00024329 0 0.000272045 -0.000136982 0 -0.00075148 0.000138321 0 
0.000209366 -0.000599589 0 0.000324913 -0.000630055 0 0.000614044 0.00041245 0 
0.00049651 -0.000573327 0 0.000394822 -0.000507321 0 -0.000173714 -0.000206698 0 
0.000264897 5.63722e-05 0 0.000247997 0.000152811 0 -4.63327e-05 -0.000920208 0 
9.18688e-05 0.000258626 0 -5.54111e-06 0.000290558 0 -0.000184219 0.000201484 0 
-0.000263559 0.000142267 0 -0.000256427 5.13624e-05 0 -0.000336894 -2.06179e-06 0 
-0.000228499 -4.2388e-05 0 -0.00017589 0.000106626 0 -0.000769947 -0.000133367 0 
0.000767591 -0.000500293 0 -5.05874e-05 0.000737978 0 0.000754456 -3.51771e-06 0 
0.00064691 -6.15298e-05 0 0.000630483 -0.00018134 0 0.000749187 -0.000265543 0 
-0.000760805 -0.000462521 0 0.000638155 6.09315e-05 0 -4.46661e-05 0.000922995 0 
-2.37945e-05 0.000207237 0 0.000776979 0.000500181 0 -0.000605691 0.000527596 0 
-0.000377914 -0.000653727 0 -0.000372325 -0.000526022 0 -0.000275829 -0.000589621 0 
-0.000254285 -0.000710579 0 -0.000379307 0.000656222 0 -0.000379818 0.00052718 0 
-0.000266817 0.000721555 0 -0.000150544 0.000668174 0 0.000381963 0.00065079 0 
0.000493113 0.000590432 0 0.000505439 0.000463708 0 -0.000269094 0.000596608 0 
0.000385815 0.000532045 0 0.000283599 0.0005899 0 -0.000176405 -0.000108505 0 
-0.000278769 -0.000475415 0 0.000185395 2.33014e-06 0 0.000186773 0.000517571 0 
0.000540032 -8.68444e-05 0 -0.000600694 -0.000514877 0 -0.00063703 8.98033e-05 0 
-0.000459677 0.000335729 0 -0.000338836 -0.000100751 0 -0.000457327 0.000432721 0 
-8.72007e-06 -0.000210238 0 0.000156073 0.000129496 0 -7.70692e-05 -0.000555049 0 
0.00036091 -0.000389728 0 0.000531628 0.000120564 0 -0.000285451 0.000435562 0 
0.000192719 -0.000494604 0 0.00041642 0.00039368 0 -0.000135943 0.000554637 0 
-0.000170665 -0.000610079 0 -0.000666304 0.000434981 0 -0.000758736 0.000479231 0 
-0.000470189 -0.000458901 0 0.000203433 -8.59809e-05 0 0.000101846 0.000170114 0 
-0.00035513 -0.00040726 0 0.000100184 -0.000165831 0 2.96286e-05 0.00081537 0 
0.000720946 0.000381836 0 -0.000539809 -0.000292001 0 0.00052211 -0.000182426 0 
-6.41339e-05 -0.000753908 0 0.000638039 -0.000299861 0 -0.000605136 -0.000230182 0 
-3.41638e-05 -0.000145561 0 -0.000104037 0.000172396 0 -0.000808575 -0.00042774 0 
-0.000807207 -0.000465052 0 -0.00080817 0.000429771 0 -0.000806589 0.000469738 0 
-9.50634e-05 -0.000178909 0 0.000247777 0.000445058 0 1.48293e-05 -0.000814201 0 
-4.11555e-05 0.000140955 0 0.000276104 -0.000536845 0 0.000765969 -0.000436638 0 
0.000780871 -0.000362769 0 0.000424176 -0.000642018 0 0.00053413 -0.000368009 0 
-0.000416333 4.17911e-05 0 -0.000133891 -6.23822e-05 0 4.2574e-05 0.000206312 0 
[...]
POINT_DATA 626
VECTORS displacement float
-1.74394e-06 3.09548e-05 1.80552e-05
1.73565e-06 3.09739e-05 1.81003e-05
-2.59866e-05 1.6993e-05 1.80872e-05
-2.58412e-05 1.60332e-05 1.80518e-05
-2.7721e-05 1.3973e-05 1.80692e-05
-2.7714e-05 -1.40193e-05 1.80947e-05
-2.58124e-05 -1.60714e-05 1.8106e-05
-2.59828e-05 -1.70111e-05 1.81672e-05
-1.6774e-06 -3.09586e-05 1.80516e-05
1.75545e-06 -3.09601e-05 1.81021e-05
2.5944e-05 -1.69809e-05 1.80437e-05
2.77173e-05 -1.39369e-05 1.80435e-05
2.76728e-05 1.39896e-05 1.80918e-05
2.59153e-05 1.69932e-05 1.80462e-05
0 0 0
-1.74394e-06 3.09548e-05 -1.80552e-05
1.73565e-06 3.09739e-05 -1.81003e-05
-2.59866e-05 1.6993e-05 -1.80872e-05
-2.58412e-05 1.60332e-05 -1.80518e-05
-2.7721e-05 1.3973e-05 -1.80692e-05
-2.7714e-05 -1.40193e-05 -1.80947e-05
-2.58124e-05 -1.60714e-05 -1.8106e-05
-2.59828e-05 -1.70111e-05 -1.81672e-05
-1.6774e-06 -3.09586e-05 -1.80516e-05
1.75545e-06 -3.09601e-05 -1.81021e-05
2.5944e-05 -1.69809e-05 -1.80437e-05
2.77173e-05 -1.39369e-05 -1.80435e-05
2.76728e-05 1.39896e-05 -1.80918e-05
2.59153e-05 1.69932e-05 -1.80462e-05
0 0 0
2.48927e-08 3.01547e-05 1.80344e-05
-2.11409e-05 1.87126e-05 1.75499e-05
-1.72328e-05 1.98341e-05 1.6921e-05
-1.40072e-05 2.10545e-05 1.65551e-05
-1.1207e-05 2.26652e-05 1.6549e-05
-8.52418e-06 2.48332e-05 1.69015e-05
-5.56783e-06 2.76221e-05 1.75376e-05
-2.64502e-05 1.46793e-05 1.80336e-05
-2.67691e-05 -9.01169e-06 1.75776e-05
-2.58066e-05 -5.03557e-06 1.69261e-05
-2.52548e-05 -1.63624e-06 1.65716e-05
-2.52578e-05 1.60788e-06 1.65746e-05
-2.57989e-05 5.02297e-06 1.69243e-05
-2.67553e-05 8.98477e-06 1.75641e-05
-2.64371e-05 -1.47257e-05 1.80624e-05
-5.54109e-06 -2.76366e-05 1.75298e-05
-8.4767e-06 -2.48422e-05 1.69009e-05
-1.11702e-05 -2.26846e-05 1.65564e-05
-1.39708e-05 -2.10876e-05 1.65597e-05
-1.72152e-05 -1.98695e-05 1.69368e-05
-2.11345e-05 -1.87494e-05 1.75624e-05
8.98377e-08 -3.01395e-05 1.80295e-05
2.11243e-05 -1.8625e-05 1.75116e-05
1.7245e-05 -1.97625e-05 1.6873e-05
1.40341e-05 -2.10115e-05 1.65118e-05
1.12252e-05 -2.25933e-05 1.65463e-05
8.58134e-06 -2.47804e-05 1.68743e-05
5.65471e-06 -2.76268e-05 1.75352e-05
2.61249e-05 -1.50599e-05 1.80285e-05
2.67172e-05 8.93856e-06 1.75017e-05
2.57224e-05 5.04969e-06 1.69086e-05
2.52069e-05 1.62335e-06 1.65234e-05
2.52041e-05 -1.59946e-06 1.65217e-05
2.5751e-05 -4.99748e-06 1.68885e-05
2.66992e-05 -8.91731e-06 1.75098e-05
2.61079e-05 1.5061e-05 1.80256e-05
5.63317e-06 2.76182e-05 1.75097e-05
8.50871e-06 2.48071e-05 1.69114e-05
1.12172e-05 2.26414e-05 1.65296e-05
1.40047e-05 2.10224e-05 1.65249e-05
1.7222e-05 1.97937e-05 1.68853e-05
2.11153e-05 1.86347e-05 1.75255e-05
0 0 0
0 0 0
0 0 0
0 0 0
0 0 0
0 0 0
2.48927e-08 3.01547e-05 -1.80344e-05
-2.11409e-05 1.87126e-05 -1.75499e-05
-1.72328e-05 1.98341e-05 -1.6921e-05
-1.40072e-05 2.10545e-05 -1.65551e-05
-1.1207e-05 2.26652e-05 -1.6549e-05
-8.52418e-06 2.48332e-05 -1.69015e-05
-5.56783e-06 2.76221e-05 -1.75376e-05
-2.64502e-05 1.46793e-05 -1.80336e-05
-2.67691e-05 -9.01169e-06 -1.75776e-05
-2.58066e-05 -5.03557e-06 -1.69261e-05
-2.52548e-05 -1.63624e-06 -1.65716e-05
-2.52578e-05 1.60788e-06 -1.65746e-05
-2.57989e-05 5.02297e-06 -1.69243e-05
-2.67553e-05 8.98477e-06 -1.75641e-05
-2.64371e-05 -1.47257e-05 -1.80624e-05
-5.54109e-06 -2.76366e-05 -1.75298e-05
-8.4767e-06 -2.48422e-05 -1.69009e-05
-1.11702e-05 -2.26846e-05 -1.65564e-05
-1.39708e-05 -2.10876e-05 -1.65597e-05
-1.72152e-05 -1.98695e-05 -1.69368e-05
-2.11345e-05 -1.87494e-05 -1.75624e-05
8.98377e-08 -3.01395e-05 -1.80295e-05
2.11243e-05 -1.8625e-05 -1.75116e-05
1.7245e-05 -1.97625e-05 -1.6873e-05
1.40341e-05 -2.10115e-05 -1.65118e-05
1.12252e-05 -2.25933e-05 -1.65463e-05
8.58134e-06 -2.47804e-05 -1.68743e-05
5.65471e-06 -2.76268e-05 -1.75352e-05
2.61249e-05 -1.50599e-05 -1.80285e-05
2.67172e-05 8.93856e-06 -1.75017e-05
2.57224e-05 5.04969e-06 -1.69086e-05
2.52069e-05 1.62335e-06 -1.65234e-05
2.52041e-05 -1.59946e-06 -1.65217e-05
2.5751e-05 -4.99748e-06 -1.68885e-05
2.66992e-05 -8.91731e-06 -1.75098e-05
2.61079e-05 1.5061e-05 -1.80256e-05
5.63317e-06 2.76182e-05 -1.75097e-05
8.50871e-06 2.48071e-05 -1.69114e-05
1.12172e-05 2.26414e-05 -1.65296e-05
1.40047e-05 2.10224e-05 -1.65249e-05
1.7222e-05 1.97937e-05 -1.68853e-05
2.11153e-05 1.86347e-05 -1.75255e-05
0 0 0
0 0 0
0 0 0
0 0 0
0 0 0
0 0 0
1.7937e-06 8.58755e-07 4.55231e-06
1.73784e-06 -8.25122e-07 4.46086e-06
4.31958e-07 1.84964e-06 4.49518e-06
4.36102e-07 -1.78065e-06 4.35614e-06
-1.8475e-06 2.09634e-08 4.42242e-06
-1.1231e-06 -1.30889e-06 4.15105e-06
-1.15922e-06 1.30681e-06 4.19983e-06
-2.25133e-05 -7.28778e-06 1.70001e-05
-2.21967e-05 7.37167e-06 1.69688e-05
-4.86049e-06 2.28988e-05 1.69372e-05
-4.85801e-06 -2.31319e-05 1.69641e-05
1.74215e-05 1.56357e-05 1.693e-05
1.7569e-05 -1.55366e-05 1.69393e-05
2.10738e-05 3.16393e-06 1.63245e-05
-1.39533e-05 1.71515e-05 1.64785e-05
-1.35914e-05 -1.67415e-05 1.64101e-05
7.76794e-06 1.98198e-05 1.63314e-05
7.68496e-06 -2.03102e-05 1.64026e-05
2.14726e-05 -3.44378e-06 1.64003e-05
-2.1103e-05 6.5881e-09 1.62468e-05
-2.24206e-05 1.09999e-05 1.74538e-05
-1.87511e-05 9.25481e-06 1.66272e-05
-1.7983e-05 5.79553e-06 1.60364e-05
-1.49841e-05 7.44843e-06 1.54865e-05
-1.42246e-05 4.30777e-06 1.48298e-05
-1.15327e-05 5.74396e-06 1.40948e-05
-1.08582e-05 3.06877e-06 1.33736e-05
-8.40059e-06 4.30493e-06 1.24044e-05
-9.05892e-06 7.01349e-06 1.34564e-05
-6.20418e-06 5.48857e-06 1.1689e-05
-6.82839e-06 8.24954e-06 1.308e-05
-4.28145e-06 6.67499e-06 1.14505e-05
-4.80007e-06 9.61004e-06 1.3094e-05
-2.4009e-06 7.99344e-06 1.1723e-05
-2.81289e-06 1.11674e-05 1.3475e-05
-4.75416e-07 9.59541e-06 1.2501e-05
-7.38364e-07 1.29971e-05 1.41418e-05
1.7311e-06 1.15179e-05 1.3535e-05
-5.53476e-06 1.27005e-05 1.4437e-05
1.6851e-06 8.22408e-06 1.17476e-05
4.00423e-06 1.0121e-05 1.3151e-05
3.7054e-06 7.09804e-06 1.14783e-05
6.06748e-06 8.96678e-06 1.31134e-05
5.76689e-06 6.10686e-06 1.17356e-05
8.35819e-06 8.02042e-06 1.34921e-05
8.10575e-06 5.19533e-06 1.25004e-05
1.09541e-05 7.09714e-06 1.4147e-05
1.07461e-05 4.32285e-06 1.34991e-05
8.53063e-06 1.10376e-05 1.44608e-05
7.93779e-06 2.64378e-06 1.17274e-05
1.06461e-05 1.73722e-06 1.31041e-05
7.94878e-06 3.58765e-07 1.14556e-05
1.08065e-05 -7.59122e-07 1.31242e-05
8.11174e-06 -1.93783e-06 1.17091e-05
1.10984e-05 -3.31289e-06 1.3484e-05
8.46984e-06 -4.42404e-06 1.24441e-05
1.15039e-05 -6.00296e-06 1.41095e-05
8.95569e-06 -7.1382e-06 1.34281e-05
6.1476e-06 -5.49448e-06 1.16413e-05
6.64458e-06 -8.30097e-06 1.30183e-05
4.10526e-06 -6.58859e-06 1.1311e-05
4.52341e-06 -9.55099e-06 1.29883e-05
2.24232e-06 -7.85839e-06 1.15974e-05
2.48487e-06 -1.1002e-05 1.3351e-05
2.25294e-07 -9.37381e-06 1.23536e-05
3.30017e-07 -1.277e-05 1.40339e-05
-1.91546e-06 -1.11508e-05 1.33771e-05
-1.84109e-06 -7.92172e-06 1.15822e-05
-4.16795e-06 -9.87498e-06 1.30851e-05
-3.81399e-06 -6.73059e-06 1.13172e-05
-6.34571e-06 -8.66214e-06 1.30994e-05
-5.89138e-06 -5.69809e-06 1.16285e-05
-8.49984e-06 -7.4359e-06 1.33798e-05
-8.16765e-06 -4.72812e-06 1.24087e-05
-1.10958e-05 -6.40286e-06 1.407e-05
-4.37171e-06 -1.31234e-05 1.44338e-05
-1.0809e-05 -3.65073e-06 1.34393e-05
7.22622e-06 -1.13729e-05 1.42731e-05
-7.7418e-06 1.98271e-06 1.1493e-05
-1.32163e-05 1.03507e-06 1.4211e-05
1.72915e-06 1.5083e-05 1.49523e-05
1.37683e-05 4.62244e-07 1.43879e-05
1.38434e-05 6.10019e-06 1.49318e-05
-9.6942e-06 1.01964e-05 1.45326e-05
-5.41608e-06 -3.1977e-06 1.01822e-05
-1.17138e-05 -9.29747e-06 1.48893e-05
1.18826e-05 -8.76034e-06 1.47873e-05
1.4782e-05 -7.47371e-06 1.54035e-05
-1.39599e-05 -5.24397e-06 1.48618e-05
2.79586e-06 -1.45164e-05 1.47963e-05
4.24568e-07 -1.64997e-05 1.53979e-05
3.51848e-06 4.397e-06 9.58123e-06
1.40108e-05 9.2992e-06 1.54918e-05
1.79311e-05 8.14508e-06 1.63007e-05
-1.56757e-05 1.13955e-05 1.62337e-05
-1.0941e-06 1.67693e-05 1.54955e-05
1.90689e-06 1.96219e-05 1.63112e-05
-2.0919e-06 5.22015e-06 9.59772e-06
5.55402e-06 -7.84615e-07 9.59427e-06
3.586e-06 -3.68362e-06 9.0821e-06
-1.77966e-06 -5.17865e-06 9.44973e-06
-2.24691e-05 -1.1011e-05 1.74745e-05
-1.87985e-05 -9.24156e-06 1.66512e-05
2.11481e-05 1.4165e-05 1.75058e-05
2.07541e-05 -1.43178e-05 1.74357e-05
-1.76462e-06 -2.54469e-05 1.75111e-05
-1.68215e-06 2.54109e-05 1.75158e-05
1.77133e-05 -1.19071e-05 1.66874e-05
2.0646e-05 -1.07512e-05 1.71162e-05
3.7757e-06 -1.89854e-05 1.61396e-05
7.6854e-07 -2.03461e-05 1.64831e-05
-1.94054e-05 -1.26507e-05 1.71433e-05
-1.37313e-05 -2.30696e-06 1.4472e-05
-1.6593e-05 -3.70149e-06 1.54777e-05
-1.0376e-05 -1.0964e-06 1.29522e-05
2.44524e-05 1.1073e-05 1.76518e-05
2.54979e-05 -1.24034e-05 1.78483e-05
2.64927e-06 2.67264e-05 1.76607e-05
2.52102e-06 -2.6414e-05 1.76295e-05
3.3395e-06 -2.30322e-05 1.70293e-05
-2.05392e-06 -1.83202e-05 1.59511e-05
4.05911e-06 2.37917e-05 1.71306e-05
2.26145e-05 8.37938e-06 1.71194e-05
4.61367e-06 1.73136e-05 1.57275e-05
1.44272e-05 -1.31196e-05 1.61376e-05
-1.57879e-05 -1.09849e-05 1.62147e-05
-1.68e-05 -3.81433e-07 1.53775e-05
1.73062e-05 4.68755e-06 1.57258e-05
6.55226e-08 -6.38739e-06 1.02676e-05
1.74173e-06 -4.84852e-06 9.0926e-06
5.85053e-06 -2.93555e-06 1.03783e-05
-2.14445e-05 3.75056e-06 1.6459e-05
5.72944e-06 -1.62747e-05 1.55079e-05
9.08358e-06 -1.74993e-05 1.59977e-05
1.75724e-05 1.18818e-05 1.66725e-05
1.39944e-05 -1.63825e-05 1.64014e-05
1.07401e-05 -1.37892e-05 1.55503e-05
-3.54801e-06 -4.22024e-06 9.50088e-06
5.39918e-06 1.13851e-06 9.49917e-06
5.21811e-06 3.22291e-06 1.00474e-05
-1.74979e-06 -2.83548e-05 1.7877e-05
1.89208e-06 5.29895e-06 9.58457e-06
-1.13825e-07 6.10508e-06 1.00389e-05
-3.78496e-06 4.12779e-06 9.57852e-06
-5.62274e-06 3.03422e-06 1.02854e-05
-5.16553e-06 1.04068e-06 9.21372e-06
-7.52733e-06 -6.17399e-08 1.11725e-05
-4.33442e-06 -8.10286e-07 8.38196e-06
-3.10862e-06 1.87235e-06 7.37415e-06
-2.20814e-05 -3.6078e-06 1.6516e-05
2.34065e-05 -1.56881e-05 1.78363e-05
-1.50721e-06 2.11682e-05 1.66822e-05
2.12619e-05 -8.45208e-08 1.62259e-05
1.76223e-05 -1.64682e-06 1.55816e-05
1.73479e-05 -4.94173e-06 1.57708e-05
2.18918e-05 -7.45121e-06 1.69138e-05
-2.31825e-05 -1.42547e-05 1.78328e-05
1.73248e-05 1.64889e-06 1.55087e-05
-1.73401e-06 2.84734e-05 1.78943e-05
-4.22076e-07 3.68346e-06 7.49539e-06
2.37722e-05 1.57425e-05 1.78847e-05
-1.74976e-05 1.56424e-05 1.69751e-05
-1.06263e-05 -1.84663e-05 1.62552e-05
-1.00997e-05 -1.43425e-05 1.55718e-05
-7.50786e-06 -1.6095e-05 1.56222e-05
-7.32221e-06 -2.01207e-05 1.63954e-05
-1.07046e-05 1.85354e-05 1.6267e-05
-1.03475e-05 1.43843e-05 1.56195e-05
-7.77273e-06 2.04927e-05 1.64444e-05
-4.25304e-06 1.86099e-05 1.60531e-05
1.07598e-05 1.83457e-05 1.62263e-05
1.38918e-05 1.69351e-05 1.64312e-05
1.40421e-05 1.2973e-05 1.60515e-05
-7.36167e-06 1.62885e-05 1.56387e-05
1.05253e-05 1.45472e-05 1.56454e-05
7.74885e-06 1.60925e-05 1.56141e-05
-3.1165e-06 -1.89879e-06 7.39328e-06
-7.25774e-06 -1.24222e-05 1.46253e-05
3.00869e-06 4.03606e-08 6.60107e-06
4.87264e-06 1.35229e-05 1.46183e-05
1.40762e-05 -2.26042e-06 1.45706e-05
-1.729e-05 -1.52169e-05 1.69457e-05
-1.73667e-05 2.42034e-06 1.5598e-05
-1.22049e-05 8.91205e-06 1.49436e-05
-7.70573e-06 -2.29255e-06 1.15548e-05
-1.24499e-05 1.18128e-05 1.55402e-05
-1.42737e-07 -3.75427e-06 7.55428e-06
2.73026e-06 2.2721e-06 7.25203e-06
-2.00389e-06 -1.46507e-05 1.48082e-05
9.36522e-06 -1.00684e-05 1.43896e-05
1.38609e-05 3.15786e-06 1.45663e-05
-7.34014e-06 1.11995e-05 1.42605e-05
4.99729e-06 -1.2775e-05 1.43695e-05
1.1032e-05 1.04306e-05 1.49198e-05
-3.5965e-06 1.46855e-05 1.49082e-05
-4.63553e-06 -1.66171e-05 1.5549e-05
-1.95073e-05 1.28926e-05 1.71615e-05
-2.31272e-05 1.48584e-05 1.78436e-05
-1.29051e-05 -1.26863e-05 1.58127e-05
3.76085e-06 -1.58614e-06 7.90706e-06
1.76442e-06 2.92232e-06 7.08454e-06
-9.23061e-06 -1.06096e-05 1.4532e-05
1.72776e-06 -2.82319e-06 6.93117e-06
9.9474e-07 2.41172e-05 1.73087e-05
2.13683e-05 1.1194e-05 1.72989e-05
-1.46648e-05 -7.95351e-06 1.54856e-05
1.37083e-05 -4.78639e-06 1.46908e-05
-1.90991e-06 -2.17633e-05 1.68029e-05
1.80607e-05 -8.41919e-06 1.63409e-05
-1.66792e-05 -6.32866e-06 1.57826e-05
-4.32906e-07 -1.92235e-06 4.79855e-06
-1.80539e-06 2.99548e-06 7.17729e-06
-2.50523e-05 -1.2982e-05 1.79225e-05
-2.51275e-05 -1.45075e-05 1.80023e-05
-2.50455e-05 1.30339e-05 1.79062e-05
-2.51184e-05 1.46502e-05 1.79823e-05
-1.64848e-06 -3.12489e-06 7.21002e-06
6.32805e-06 1.13686e-05 1.40768e-05
5.33715e-07 -2.40865e-05 1.73024e-05
-5.22784e-07 1.80957e-06 4.64508e-06
7.40758e-06 -1.43439e-05 1.51526e-05
2.33032e-05 -1.32095e-05 1.7729e-05
2.3633e-05 -1.05377e-05 1.7491e-05
1.19886e-05 -1.82112e-05 1.62935e-05
1.47304e-05 -1.01468e-05 1.57958e-05
-1.00272e-05 1.00126e-06 1.27548e-05
-1.74003e-06 -8.15912e-07 4.72353e-06
7.69075e-07 3.7084e-06 7.57327e-06
2.3431e-06 -1.99719e-06 6.55539e-06
2.01568e-05 5.89793e-06 1.64538e-05
5.07016e-06 2.05963e-05 1.64962e-05
3.42118e-07 -2.76804e-05 1.78542e-05
-1.73125e-06 7.0912e-07 4.6064e-06
-3.21155e-06 6.23056e-07 6.82425e-06
3.57727e-06 1.47543e-06 7.63675e-06
4.99227e-07 2.83242e-05 1.79275e-05
2.47607e-05 1.37343e-05 1.79186e-05
-2.03287e-05 1.55361e-05 1.74293e-05
1.17872e-06 1.36449e-06 4.45992e-06
-2.06399e-05 -1.57286e-05 1.75278e-05
-1.89992e-05 -2.32222e-06 1.59464e-05
-1.95595e-05 -5.58508e-06 1.63325e-05
9.05695e-07 -3.2478e-06 7.00622e-06
-4.36609e-06 -1.97896e-05 1.63221e-05
-7.93742e-06 1.38346e-05 1.51013e-05
1.16576e-06 -1.3042e-06 4.33936e-06
1.19346e-05 -1.12285e-05 1.52924e-05
6.13315e-06 -2.26965e-05 1.68207e-05
-1.45224e-05 1.43556e-05 1.63239e-05
7.92921e-06 1.33215e-05 1.49482e-05
1.7937e-06 8.58755e-07 -4.55231e-06
1.73784e-06 -8.25122e-07 -4.46086e-06
4.31958e-07 1.84964e-06 -4.49518e-06
4.36102e-07 -1.78065e-06 -4.35614e-06
-1.8475e-06 2.09634e-08 -4.42242e-06
-1.1231e-06 -1.30889e-06 -4.15105e-06
-1.15922e-06 1.30681e-06 -4.19983e-06
-2.25133e-05 -7.28778e-06 -1.70001e-05
-2.21967e-05 7.37167e-06 -1.69688e-05
-4.86049e-06 2.28988e-05 -1.69372e-05
-4.85801e-06 -2.31319e-05 -1.69641e-05
1.74215e-05 1.56357e-05 -1.693e-05
1.7569e-05 -1.55366e-05 -1.69393e-05
2.10738e-05 3.16393e-06 -1.63245e-05
-1.39533e-05 1.71515e-05 -1.64785e-05
-1.35914e-05 -1.67415e-05 -1.64101e-05
7.76794e-06 1.98198e-05 -1.63314e-05
7.68496e-06 -2.03102e-05 -1.64026e-05
2.14726e-05 -3.44378e-06 -1.64003e-05
-2.1103e-05 6.5881e-09 -1.62468e-05
-2.24206e-05 1.09999e-05 -1.74538e-05
-1.87511e-05 9.25481e-06 -1.66272e-05
-1.7983e-05 5.79553e-06 -1.60364e-05
-1.49841e-05 7.44843e-06 -1.54865e-05
-1.42246e-05 4.30777e-06 -1.48298e-05
-1.15327e-05 5.74396e-06 -1.40948e-05
-1.08582e-05 3.06877e-06 -1.33736e-05
-8.40059e-06 4.30493e-06 -1.24044e-05
-9.05892e-06 7.01349e-06 -1.34564e-05
-6.20418e-06 5.48857e-06 -1.1689e-05
-6.82839e-06 8.24954e-06 -1.308e-05
-4.28145e-06 6.67499e-06 -1.14505e-05
-4.80007e-06 9.61004e-06 -1.3094e-05
-2.4009e-06 7.99344e-06 -1.1723e-05
-2.81289e-06 1.11674e-05 -1.3475e-05
-4.75416e-07 9.59541e-06 -1.2501e-05
-7.38364e-07 1.29971e-05 -1.41418e-05
1.7311e-06 1.15179e-05 -1.3535e-05
-5.53476e-06 1.27005e-05 -1.4437e-05
1.6851e-06 8.22408e-06 -1.17476e-05
4.00423e-06 1.0121e-05 -1.3151e-05
3.7054e-06 7.09804e-06 -1.14783e-05
6.06748e-06 8.96678e-06 -1.31134e-05
5.76689e-06 6.10686e-06 -1.17356e-05
8.35819e-06 8.02042e-06 -1.34921e-05
8.10575e-06 5.19533e-06 -1.25004e-05
1.09541e-05 7.09714e-06 -1.4147e-05
1.07461e-05 4.32285e-06 -1.34991e-05
8.53063e-06 1.10376e-05 -1.44608e-05
7.93779e-06 2.64378e-06 -1.17274e-05
1.06461e-05 1.73722e-06 -1.31041e-05
7.94878e-06 3.58765e-07 -1.14556e-05
1.08065e-05 -7.59122e-07 -1.31242e-05
8.11174e-06 -1.93783e-06 -1.17091e-05
1.10984e-05 -3.31289e-06 -1.3484e-05
8.46984e-06 -4.42404e-06 -1.24441e-05
1.15039e-05 -6.00296e-06 -1.41095e-05
8.95569e-06 -7.1382e-06 -1.34281e-05
6.1476e-06 -5.49448e-06 -1.16413e-05
6.64458e-06 -8.30097e-06 -1.30183e-05
4.10526e-06 -6.58859e-06 -1.1311e-05
4.52341e-06 -9.55099e-06 -1.29883e-05
2.24232e-06 -7.85839e-06 -1.15974e-05
2.48487e-06 -1.1002e-05 -1.3351e-05
2.25294e-07 -9.37381e-06 -1.23536e-05
3.30017e-07 -1.277e-05 -1.40339e-05
-1.91546e-06 -1.11508e-05 -1.33771e-05
-1.84109e-06 -7.92172e-06 -1.15822e-05
-4.16795e-06 -9.87498e-06 -1.30851e-05
-3.81399e-06 -6.73059e-06 -1.13172e-05
-6.34571e-06 -8.66214e-06 -1.30994e-05
-5.89138e-06 -5.69809e-06 -1.16285e-05
-8.49984e-06 -7.4359e-06 -1.33798e-05
-8.16765e-06 -4.72812e-06 -1.24087e-05
-1.10958e-05 -6.40286e-06 -1.407e-05
-4.37171e-06 -1.31234e-05 -1.44338e-05
-1.0809e-05 -3.65073e-06 -1.34393e-05
7.22622e-06 -1.13729e-05 -1.42731e-05
-7.7418e-06 1.98271e-06 -1.1493e-05
-1.32163e-05 1.03507e-06 -1.4211e-05
1.72915e-06 1.5083e-05 -1.49523e-05
1.37683e-05 4.62244e-07 -1.43879e-05
1.38434e-05 6.10019e-06 -1.49318e-05
-9.6942e-06 1.01964e-05 -1.45326e-05
-5.41608e-06 -3.1977e-06 -1.01822e-05
-1.17138e-05 -9.29747e-06 -1.48893e-05
1.18826e-05 -8.76034e-06 -1.47873e-05
1.4782e-05 -7.47371e-06 -1.54035e-05
-1.39599e-05 -5.24397e-06 -1.48618e-05
2.79586e-06 -1.45164e-05 -1.47963e-05
4.24568e-07 -1.64997e-05 -1.53979e-05
3.51848e-06 4.397e-06 -9.58123e-06
1.40108e-05 9.2992e-06 -1.54918e-05
1.79311e-05 8.14508e-06 -1.63007e-05
-1.56757e-05 1.13955e-05 -1.62337e-05
-1.0941e-06 1.67693e-05 -1.54955e-05
1.90689e-06 1.96219e-05 -1.63112e-05
-2.0919e-06 5.22015e-06 -9.59772e-06
5.55402e-06 -7.84615e-07 -9.59427e-06
3.586e-06 -3.68362e-06 -9.0821e-06
-1.77966e-06 -5.17865e-06 -9.44973e-06
-2.24691e-05 -1.1011e-05 -1.74745e-05
-1.87985e-05 -9.24156e-06 -1.66512e-05
2.11481e-05 1.4165e-05 -1.75058e-05
2.07541e-05 -1.43178e-05 -1.74357e-05
-1.76462e-06 -2.54469e-05 -1.75111e-05
-1.68215e-06 2.54109e-05 -1.75158e-05
1.77133e-05 -1.19071e-05 -1.66874e-05
2.0646e-05 -1.07512e-05 -1.71162e-05
3.7757e-06 -1.89854e-05 -1.61396e-05
7.6854e-07 -2.03461e-05 -1.64831e-05
-1.94054e-05 -1.26507e-05 -1.71433e-05
-1.37313e-05 -2.30696e-06 -1.4472e-05
-1.6593e-05 -3.70149e-06 -1.54777e-05
-1.0376e-05 -1.0964e-06 -1.29522e-05
2.44524e-05 1.1073e-05 -1.76518e-05
2.54979e-05 -1.24034e-05 -1.78483e-05
2.64927e-06 2.67264e-05 -1.76607e-05
2.52102e-06 -2.6414e-05 -1.76295e-05
3.3395e-06 -2.30322e-05 -1.70293e-05
-2.05392e-06 -1.83202e-05 -1.59511e-05
4.05911e-06 2.37917e-05 -1.71306e-05
2.26145e-05 8.37938e-06 -1.71194e-05
4.61367e-06 1.73136e-05 -1.57275e-05
1.44272e-05 -1.31196e-05 -1.61376e-05
-1.57879e-05 -1.09849e-05 -1.62147e-05
-1.68e-05 -3.81433e-07 -1.53775e-05
1.73062e-05 4.68755e-06 -1.57258e-05
6.55226e-08 -6.38739e-06 -1.02676e-05
1.74173e-06 -4.84852e-06 -9.0926e-06
5.85053e-06 -2.93555e-06 -1.03783e-05
-2.14445e-05 3.75056e-06 -1.6459e-05
5.72944e-06 -1.62747e-05 -1.55079e-05
9.08358e-06 -1.74993e-05 -1.59977e-05
1.75724e-05 1.18818e-05 -1.66725e-05
1.39944e-05 -1.63825e-05 -1.64014e-05
1.07401e-05 -1.37892e-05 -1.55503e-05
-3.54801e-06 -4.22024e-06 -9.50088e-06
5.39918e-06 1.13851e-06 -9.49917e-06
5.21811e-06 3.22291e-06 -1.00474e-05
-1.74979e-06 -2.83548e-05 -1.7877e-05
1.89208e-06 5.29895e-06 -9.58457e-06
-1.13825e-07 6.10508e-06 -1.00389e-05
-3.78496e-06 4.12779e-06 -9.57852e-06
-5.62274e-06 3.03422e-06 -1.02854e-05
-5.16553e-06 1.04068e-06 -9.21372e-06
-7.52733e-06 -6.17399e-08 -1.11725e-05
-4.33442e-06 -8.10286e-07 -8.38196e-06
-3.10862e-06 1.87235e-06 -7.37415e-06
-2.20814e-05 -3.6078e-06 -1.6516e-05
2.34065e-05 -1.56881e-05 -1.78363e-05
-1.50721e-06 2.11682e-05 -1.66822e-05
2.12619e-05 -8.45208e-08 -1.62259e-05
1.76223e-05 -1.64682e-06 -1.55816e-05
1.73479e-05 -4.94173e-06 -1.57708e-05
2.18918e-05 -7.45121e-06 -1.69138e-05
-2.31825e-05 -1.42547e-05 -1.78328e-05
1.73248e-05 1.64889e-06 -1.55087e-05
-1.73401e-06 2.84734e-05 -1.78943e-05
-4.22076e-07 3.68346e-06 -7.49539e-06