# vtk DataFile Version 3.0
vtk output at time 100
ASCII
DATASET UNSTRUCTURED_GRID
POINTS 626 float
-3.68058e-05 0.000978749 0 3.68058e-05 0.000978749 0 -0.000829194 0.00052125 0 
-0.0008235 0.0005 0 -0.000866 0.0004575 0 -0.000866 -0.0004575 0 
-0.0008235 -0.0005 0 -0.000829194 -0.00052125 0 -3.68058e-05 -0.000978749 0 
3.68058e-05 -0.000978749 0 0.000829194 -0.00052125 0 0.000866 -0.0004575 0 
0.000866 0.0004575 0 0.000829194 0.00052125 0 8.5e-05 0 0 
-3.68058e-05 0.000978749 -0.001 3.68058e-05 0.000978749 -0.001 -0.000829194 0.00052125 -0.001 
-0.0008235 0.0005 -0.001 -0.000866 0.0004575 -0.001 -0.000866 -0.0004575 -0.001 
-0.0008235 -0.0005 -0.001 -0.000829194 -0.00052125 -0.001 -3.68058e-05 -0.000978749 -0.001 
3.68058e-05 -0.000978749 -0.001 0.000829194 -0.00052125 -0.001 0.000866 -0.0004575 -0.001 
0.000866 0.0004575 -0.001 0.000829194 0.00052125 -0.001 8.5e-05 0 -0.001 
8.46223e-17 0.0009575 0 -0.000715996 0.000586607 0 -0.000602797 0.000651965 0 
-0.000489599 0.000717321 0 -0.000376401 0.000782678 0 -0.000263202 0.000848036 0 
-0.000150004 0.000913393 0 -0.000835948 0.000469948 0 -0.000866 -0.000326786 0 
-0.000866 -0.000196071 0 -0.000866 -6.53571e-05 0 -0.000866 6.53571e-05 0 
-0.000866 0.000196071 0 -0.000866 0.000326786 0 -0.000835948 -0.000469948 0 
-0.000150004 -0.000913393 0 -0.000263202 -0.000848036 0 -0.000376401 -0.000782678 0 
-0.000489599 -0.000717321 0 -0.000602797 -0.000651965 0 -0.000715996 -0.000586607 0 
8.47648e-17 -0.0009575 0 0.000715996 -0.000586607 0 0.000602797 -0.000651965 0 
0.000489599 -0.000717321 0 0.000376401 -0.000782678 0 0.000263202 -0.000848036 0 
0.000150004 -0.000913393 0 0.000829194 -0.00047875 0 0.000866 0.000326786 0 
0.000866 0.000196071 0 0.000866 6.53571e-05 0 0.000866 -6.53571e-05 0 
0.000866 -0.000196071 0 0.000866 -0.000326786 0 0.000829194 0.00047875 0 
0.000150004 0.000913393 0 0.000263202 0.000848036 0 0.000376401 0.000782678 0 
0.000489599 0.000717321 0 0.000602797 0.000651965 0 0.000715996 0.000586607 0 
5.29966e-05 6.64557e-05 0 -1.89143e-05 8.28689e-05 0 -7.65824e-05 3.68801e-05 0 
-7.65824e-05 -3.68801e-05 0 -1.89143e-05 -8.28689e-05 0 5.29966e-05 -6.64557e-05 0 
8.46223e-17 0.0009575 -0.001 -0.000715996 0.000586607 -0.001 -0.000602797 0.000651965 -0.001 
-0.000489599 0.000717321 -0.001 -0.000376401 0.000782678 -0.001 -0.000263202 0.000848036 -0.001 
-0.000150004 0.000913393 -0.001 -0.000835948 0.000469948 -0.001 -0.000866 -0.000326786 -0.001 
-0.000866 -0.000196071 -0.001 -0.000866 -6.53571e-05 -0.001 -0.000866 6.53571e-05 -0.001 
-0.000866 0.000196071 -0.001 -0.000866 0.000326786 -0.001 -0.000835948 -0.000469948 -0.001 
-0.000150004 -0.000913393 -0.001 -0.000263202 -0.000848036 -0.001 -0.000376401 -0.000782678 -0.001 
-0.000489599 -0.000717321 -0.001 -0.000602797 -0.000651965 -0.001 -0.000715996 -0.000586607 -0.001 
8.47648e-17 -0.0009575 -0.001 0.000715996 -0.000586607 -0.001 0.000602797 -0.000651965 -0.001 
0.000489599 -0.000717321 -0.001 0.000376401 -0.000782678 -0.001 0.000263202 -0.000848036 -0.001 
0.000150004 -0.000913393 -0.001 0.000829194 -0.00047875 -0.001 0.000866 0.000326786 -0.001 
0.000866 0.000196071 -0.001 0.000866 6.53571e-05 -0.001 0.000866 -6.53571e-05 -0.001 
0.000866 -0.000196071 -0.001 0.000866 -0.000326786 -0.001 0.000829194 0.00047875 -0.001 
0.000150004 0.000913393 -0.001 0.000263202 0.000848036 -0.001 0.000376401 0.000782678 -0.001 
0.000489599 0.000717321 -0.001 0.000602797 0.000651965 -0.001 0.000715996 0.000586607 -0.001 
5.29966e-05 6.64557e-05 -0.001 -1.89143e-05 8.28689e-05 -0.001 -7.65824e-05 3.68801e-05 -0.001 
-7.65824e-05 -3.68801e-05 -0.001 -1.89143e-05 -8.28689e-05 -0.001 5.29966e-05 -6.64557e-05 -0.001 
0.000131234 6.38474e-05 0 0.00012964 -6.2443e-05 0 3.13827e-05 0.0001394 0 
3.12554e-05 -0.000136939 0 -0.000140461 8.25467e-19 0 -8.90565e-05 -0.000102707 0 
-9.04142e-05 0.000102872 0 -0.000765769 -0.00025965 0 -0.000756873 0.000262774 0 
-0.00015609 0.000787505 0 -0.000155807 -0.00079355 0 0.000605069 0.000528035 0 
0.000608694 -0.00052497 0 0.000744069 0.000116929 0 -0.000494418 0.000596218 0 
-0.000483866 -0.000584648 0 0.000269496 0.000702219 0 0.000263201 -0.000717324 0 
0.000754429 -0.000127825 0 -0.000748858 5.84659e-07 0 -0.000747838 0.000373886 0 
-0.0006542 0.000324842 0 -0.000645137 0.000210123 0 -0.000550884 0.000274171 0 
-0.000538857 0.000163195 0 -0.00045062 0.000224461 0 -0.000438393 0.000123907 0 
-0.000354088 0.000181668 0 -0.000363908 0.000282171 0 -0.000270361 0.000239477 0 
-0.000279138 0.000337653 0 -0.000188888 0.000294791 0 -0.000196448 0.000393271 0 
-0.000104767 0.000348259 0 -0.000113332 0.000449012 0 -2.01066e-05 0.000403223 0 
-2.89189e-05 0.000507105 0 6.9524e-05 0.000461596 0 -0.000213644 0.000490203 0 
7.33757e-05 0.000357726 0 0.000163331 0.00041299 0 0.000163359 0.000313022 0 
0.000248077 0.000366368 0 0.000250914 0.000265758 0 0.000335709 0.000322266 0 
0.000340555 0.000218148 0 0.000427299 0.000276717 0 0.000431508 0.000173093 0 
0.000328731 0.000425633 0 0.00034586 0.000114823 0 0.000435362 7.05241e-05 0 
0.000350892 1.5455e-05 0 0.000441547 -3.11896e-05 0 0.000353547 -8.47783e-05 0 
0.000445767 -0.000132964 0 0.000356135 -0.000186358 0 0.000449094 -0.000234674 0 
0.000359978 -0.000287876 0 0.00026856 -0.000240545 0 0.000271895 -0.000341045 0 
0.000181792 -0.00029305 0 0.00018533 -0.000392851 0 9.75701e-05 -0.00034483 0 
9.98764e-05 -0.000444884 0 8.75116e-06 -0.000396343 0 1.20916e-05 -0.000500496 0 
-7.83929e-05 -0.000449843 0 -8.1471e-05 -0.000347249 0 -0.000171566 -0.000403733 0 
-0.000169889 -0.000298891 0 -0.000259867 -0.000354132 0 -0.000257696 -0.000249137 0 
-0.00034313 -0.000299896 0 -0.000344514 -0.000199127 0 -0.000434309 -0.000250039 0 
-0.000169832 -0.000505815 0 -0.000435227 -0.000146227 0 0.000280331 -0.000442424 0 
-0.000340889 8.76793e-05 0 -0.000515252 4.06198e-05 0 6.50491e-05 0.000568253 0 
0.00053278 1.74743e-05 0 0.000522071 0.000229831 0 -0.00037162 0.000391659 0 
-0.000255272 -0.000150439 0 -0.000442893 -0.000350705 0 0.000450067 -0.000332559 0 
0.000545175 -0.000276306 0 -0.000527797 -0.000197598 0 0.000105306 -0.000551033 0 
1.45836e-05 -0.000609147 0 0.00017145 0.000214453 0 0.000515525 0.000341711 0 
0.000636086 0.000290368 0 -0.000558657 0.000404468 0 -4.01232e-05 0.000616718 0 
6.60192e-05 0.000696422 0 -0.000101806 0.0002546 0 0.000271142 -3.88908e-05 0 
0.000179455 -0.00018534 0 -8.79553e-05 -0.000254307 0 -0.000749267 -0.000373451 0 
-0.000655941 -0.000323397 0 0.000709746 0.000466718 0 0.000698426 -0.000473086 0 
-5.25801e-05 -0.00084886 0 -4.93005e-05 0.000848038 0 0.000617396 -0.000413362 0 
0.000702056 -0.000369817 0 0.000131459 -0.000679171 0 2.48171e-05 -0.000715924 0 
-0.000664217 -0.00042729 0 -0.000528828 -8.80444e-05 0 -0.000611101 -0.000136672 0 
-0.000426972 -4.45841e-05 0 0.000800669 0.000378216 0 0.000821144 -0.000415062 0 
7.2799e-05 0.00088254 0 6.81831e-05 -0.00087503 0 0.000104963 -0.000788946 0 
-7.40696e-05 -0.000660054 0 0.000126061 0.000809943 0 0.000764361 0.000295682 0 
0.000166862 0.000630623 0 0.000516462 -0.00046707 0 -0.000563585 -0.000389606 0 
-0.000622598 -1.40238e-05 0 0.000629891 0.000171529 0 2.5614e-06 -0.000299794 0 
8.6901e-05 -0.00024329 0 0.000272045 -0.000136982 0 -0.00075148 0.000138321 0 
0.000209366 -0.000599589 0 0.000324913 -0.000630055 0 0.000614044 0.00041245 0 
0.00049651 -0.000573327 0 0.000394822 -0.000507321 0 -0.000173714 -0.000206698 0 
0.000264897 5.63722e-05 0 0.000247997 0.000152811 0 -4.63327e-05 -0.000920208 0 
9.18688e-05 0.000258626 0 -5.54111e-06 0.000290558 0 -0.000184219 0.000201484 0 
-0.000263559 0.000142267 0 -0.000256427 5.13624e-05 0 -0.000336894 -2.06179e-06 0 
-0.000228499 -4.2388e-05 0 -0.00017589 0.000106626 0 -0.000769947 -0.000133367 0 
0.000767591 -0.000500293 0 -5.05874e-05 0.000737978 0 0.000754456 -3.51771e-06 0 
0.00064691 -6.15298e-05 0 0.000630483 -0.00018134 0 0.000749187 -0.000265543 0 
-0.000760805 -0.000462521 0 0.000638155 6.09315e-05 0 -4.46661e-05 0.000922995 0 
-2.37945e-05 0.000207237 0 0.000776979 0.000500181 0 -0.000605691 0.000527596 0 
-0.000377914 -0.000653727 0 -0.000372325 -0.000526022 0 -0.000275829 -0.000589621 0 
-0.000254285 -0.000710579 0 -0.000379307 0.000656222 0 -0.000379818 0.00052718 0 
-0.000266817 0.000721555 0 -0.000150544 0.000668174 0 0.000381963 0.00065079 0 
0.000493113 0.000590432 0 0.000505439 0.000463708 0 -0.000269094 0.000596608 0 
0.000385815 0.000532045 0 0.000283599 0.0005899 0 -0.000176405 -0.000108505 0 
-0.000278769 -0.000475415 0 0.000185395 2.33014e-06 0 0.000186773 0.000517571 0 
0.000540032 -8.68444e-05 0 -0.000600694 -0.000514877 0 -0.00063703 8.98033e-05 0 
-0.000459677 0.000335729 0 -0.000338836 -0.000100751 0 -0.000457327 0.000432721 0 
-8.72007e-06 -0.000210238 0 0.000156073 0.000129496 0 -7.70692e-05 -0.000555049 0 
0.00036091 -0.000389728 0 0.000531628 0.000120564 0 -0.000285451 0.000435562 0 
0.000192719 -0.000494604 0 0.00041642 0.00039368 0 -0.000135943 0.000554637 0 
-0.000170665 -0.000610079 0 -0.000666304 0.000434981 0 -0.000758736 0.000479231 0 
-0.000470189 -0.000458901 0 0.000203433 -8.59809e-05 0 0.000101846 0.000170114 0 
-0.00035513 -0.00040726 0 0.000100184 -0.000165831 0 2.96286e-05 0.00081537 0 
0.000720946 0.000381836 0 -0.000539809 -0.000292001 0 0.00052211 -0.000182426 0 
-6.41339e-05 -0.000753908 0 0.000638039 -0.000299861 0 -0.000605136 -0.000230182 0 
-3.41638e-05 -0.000145561 0 -0.000104037 0.000172396 0 -0.000808575 -0.00042774 0 
-0.000807207 -0.000465052 0 -0.00080817 0.000429771 0 -0.000806589 0.000469738 0 
-9.50634e-05 -0.000178909 0 0.000247777 0.000445058 0 1.48293e-05 -0.000814201 0 
-4.11555e-05 0.000140955 0 0.000276104 -0.000536845 0 0.000765969 -0.000436638 0 
0.000780871 -0.000362769 0 0.000424176 -0.000642018 0 0.00053413 -0.000368009 0 
-0.000416333 4.17911e-05 0 -0.000133891 -6.23822e-05 0 4.2574e-05 0.000206312 0 
[...]
POINT_DATA 626
VECTORS displacement float
-1.74393e-06 3.0957e-05 1.80562e-05
1.73563e-06 3.0976e-05 1.81013e-05
-2.59885e-05 1.69941e-05 1.80882e-05
-2.58431e-05 1.60343e-05 1.80528e-05
-2.77229e-05 1.39741e-05 1.80702e-05
-2.77158e-05 -1.40204e-05 1.80957e-05
-2.58143e-05 -1.60724e-05 1.8107e-05
-2.59847e-05 -1.70122e-05 1.81682e-05
-1.67739e-06 -3.09607e-05 1.80526e-05
1.75543e-06 -3.09622e-05 1.81031e-05
2.59459e-05 -1.6982e-05 1.80447e-05
2.77192e-05 -1.3938e-05 1.80445e-05
2.76747e-05 1.39907e-05 1.80928e-05
2.59172e-05 1.69942e-05 1.80472e-05
0 0 0
-1.74393e-06 3.0957e-05 -1.80562e-05
1.73563e-06 3.0976e-05 -1.81013e-05
-2.59885e-05 1.69941e-05 -1.80882e-05
-2.58431e-05 1.60343e-05 -1.80528e-05
-2.77229e-05 1.39741e-05 -1.80702e-05
-2.77158e-05 -1.40204e-05 -1.80957e-05
-2.58143e-05 -1.60724e-05 -1.8107e-05
-2.59847e-05 -1.70122e-05 -1.81682e-05
-1.67739e-06 -3.09607e-05 -1.80526e-05
1.75543e-06 -3.09622e-05 -1.81031e-05
2.59459e-05 -1.6982e-05 -1.80447e-05
2.77192e-05 -1.3938e-05 -1.80445e-05
2.76747e-05 1.39907e-05 -1.80928e-05
2.59172e-05 1.69942e-05 -1.80472e-05
0 0 0
2.48834e-08 3.01569e-05 1.80354e-05
-2.11427e-05 1.87139e-05 1.7551e-05
-1.72344e-05 1.98357e-05 1.69223e-05
-1.40085e-05 2.10564e-05 1.65564e-05
-1.1208e-05 2.26672e-05 1.65503e-05
-8.52475e-06 2.48354e-05 1.69028e-05
-5.56805e-06 2.76243e-05 1.75387e-05
-2.6452e-05 1.46804e-05 1.80347e-05
-2.67711e-05 -9.01262e-06 1.75787e-05
-2.58088e-05 -5.03618e-06 1.69274e-05
-2.52571e-05 -1.63645e-06 1.65729e-05
-2.526e-05 1.60808e-06 1.65759e-05
-2.5801e-05 5.02356e-06 1.69256e-05
-2.67573e-05 8.9857e-06 1.75652e-05
-2.64389e-05 -1.47267e-05 1.80634e-05
-5.54131e-06 -2.76388e-05 1.7531e-05
-8.47727e-06 -2.48444e-05 1.69021e-05
-1.11712e-05 -2.26866e-05 1.65577e-05
-1.39721e-05 -2.10894e-05 1.6561e-05
-1.72168e-05 -1.9871e-05 1.69381e-05
-2.11363e-05 -1.87507e-05 1.75635e-05
8.98254e-08 -3.01416e-05 1.80305e-05
2.11261e-05 -1.86263e-05 1.75127e-05
1.72466e-05 -1.9764e-05 1.68743e-05
1.40354e-05 -2.10133e-05 1.65131e-05
1.12262e-05 -2.25954e-05 1.65476e-05
8.5819e-06 -2.47826e-05 1.68756e-05
5.65491e-06 -2.7629e-05 1.75363e-05
2.61267e-05 -1.50609e-05 1.80295e-05
2.67192e-05 8.93951e-06 1.75028e-05
2.57246e-05 5.0503e-06 1.69098e-05
2.52092e-05 1.62356e-06 1.65247e-05
2.52063e-05 -1.59967e-06 1.6523e-05
2.57532e-05 -4.99808e-06 1.68898e-05
2.67013e-05 -8.91825e-06 1.7511e-05
2.61098e-05 1.50621e-05 1.80266e-05
5.63337e-06 2.76204e-05 1.75109e-05
8.50928e-06 2.48093e-05 1.69126e-05
1.12182e-05 2.26434e-05 1.65309e-05
1.4006e-05 2.10243e-05 1.65262e-05
1.72236e-05 1.97953e-05 1.68865e-05
2.11171e-05 1.8636e-05 1.75267e-05
0 0 0
0 0 0
0 0 0
0 0 0
0 0 0
0 0 0
2.48834e-08 3.01569e-05 -1.80354e-05
-2.11427e-05 1.87139e-05 -1.7551e-05
-1.72344e-05 1.98357e-05 -1.69223e-05
-1.40085e-05 2.10564e-05 -1.65564e-05
-1.1208e-05 2.26672e-05 -1.65503e-05
-8.52475e-06 2.48354e-05 -1.69028e-05
-5.56805e-06 2.76243e-05 -1.75387e-05
-2.6452e-05 1.46804e-05 -1.80347e-05
-2.67711e-05 -9.01262e-06 -1.75787e-05
-2.58088e-05 -5.03618e-06 -1.69274e-05
-2.52571e-05 -1.63645e-06 -1.65729e-05
-2.526e-05 1.60808e-06 -1.65759e-05
-2.5801e-05 5.02356e-06 -1.69256e-05
-2.67573e-05 8.9857e-06 -1.75652e-05
-2.64389e-05 -1.47267e-05 -1.80634e-05
-5.54131e-06 -2.76388e-05 -1.7531e-05
-8.47727e-06 -2.48444e-05 -1.69021e-05
-1.11712e-05 -2.26866e-05 -1.65577e-05
-1.39721e-05 -2.10894e-05 -1.6561e-05
-1.72168e-05 -1.9871e-05 -1.69381e-05
-2.11363e-05 -1.87507e-05 -1.75635e-05
8.98254e-08 -3.01416e-05 -1.80305e-05
2.11261e-05 -1.86263e-05 -1.75127e-05
1.72466e-05 -1.9764e-05 -1.68743e-05
1.40354e-05 -2.10133e-05 -1.65131e-05
1.12262e-05 -2.25954e-05 -1.65476e-05
8.5819e-06 -2.47826e-05 -1.68756e-05
5.65491e-06 -2.7629e-05 -1.75363e-05
2.61267e-05 -1.50609e-05 -1.80295e-05
2.67192e-05 8.93951e-06 -1.75028e-05
2.57246e-05 5.0503e-06 -1.69098e-05
2.52092e-05 1.62356e-06 -1.65247e-05
2.52063e-05 -1.59967e-06 -1.6523e-05
2.57532e-05 -4.99808e-06 -1.68898e-05
2.67013e-05 -8.91825e-06 -1.7511e-05
2.61098e-05 1.50621e-05 -1.80266e-05
5.63337e-06 2.76204e-05 -1.75109e-05
8.50928e-06 2.48093e-05 -1.69126e-05
1.12182e-05 2.26434e-05 -1.65309e-05
1.4006e-05 2.10243e-05 -1.65262e-05
1.72236e-05 1.97953e-05 -1.68865e-05
2.11171e-05 1.8636e-05 -1.75267e-05
0 0 0
0 0 0
0 0 0
0 0 0
0 0 0
0 0 0
1.79382e-06 8.58811e-07 4.55271e-06
1.73795e-06 -8.25177e-07 4.46125e-06
4.31986e-07 1.84976e-06 4.49557e-06
4.36131e-07 -1.78076e-06 4.35653e-06
-1.84763e-06 2.09652e-08 4.42281e-06
-1.12317e-06 -1.30897e-06 4.15142e-06
-1.15929e-06 1.30689e-06 4.2002e-06
-2.25152e-05 -7.28848e-06 1.70013e-05
-2.21985e-05 7.37237e-06 1.697e-05
-4.86083e-06 2.29008e-05 1.69384e-05
-4.85834e-06 -2.31339e-05 1.69653e-05
1.7423e-05 1.56369e-05 1.69312e-05
1.75706e-05 -1.55379e-05 1.69405e-05
2.10757e-05 3.16425e-06 1.63259e-05
-1.39546e-05 1.7153e-05 1.64798e-05
-1.35926e-05 -1.67429e-05 1.64114e-05
7.7686e-06 1.98216e-05 1.63327e-05
7.68559e-06 -2.03121e-05 1.64039e-05
2.14745e-05 -3.44414e-06 1.64016e-05
-2.11049e-05 6.58817e-09 1.62481e-05
-2.24224e-05 1.10008e-05 1.74549e-05
-1.87527e-05 9.25562e-06 1.66284e-05
-1.79846e-05 5.79605e-06 1.60377e-05
-1.49855e-05 7.44908e-06 1.54877e-05
-1.42259e-05 4.30816e-06 1.4831e-05
-1.15338e-05 5.74447e-06 1.4096e-05
-1.08591e-05 3.06904e-06 1.33748e-05
-8.40132e-06 4.3053e-06 1.24055e-05
-9.05972e-06 7.01411e-06 1.34576e-05
-6.20471e-06 5.48904e-06 1.16901e-05
-6.82899e-06 8.25027e-06 1.30812e-05
-4.28182e-06 6.67556e-06 1.14516e-05
-4.8005e-06 9.61089e-06 1.30951e-05
-2.40111e-06 7.99413e-06 1.17241e-05
-2.81314e-06 1.11684e-05 1.34762e-05
-4.7546e-07 9.59625e-06 1.25021e-05
-7.38432e-07 1.29982e-05 1.4143e-05
1.73125e-06 1.15189e-05 1.35362e-05
-5.53526e-06 1.27017e-05 1.44383e-05
1.68524e-06 8.22478e-06 1.17487e-05
4.00458e-06 1.01219e-05 1.31522e-05
3.70571e-06 7.09864e-06 1.14793e-05
6.06802e-06 8.96758e-06 1.31146e-05
5.76739e-06 6.10739e-06 1.17367e-05
8.35893e-06 8.02114e-06 1.34933e-05
8.10646e-06 5.19579e-06 1.25015e-05
1.09551e-05 7.09777e-06 1.41483e-05
1.07471e-05 4.32323e-06 1.35003e-05
8.5314e-06 1.10386e-05 1.44621e-05
7.93847e-06 2.644e-06 1.17285e-05
1.06471e-05 1.73738e-06 1.31053e-05
7.94946e-06 3.58796e-07 1.14567e-05
1.08075e-05 -7.59189e-07 1.31254e-05
8.11244e-06 -1.93799e-06 1.17102e-05
1.10994e-05 -3.31319e-06 1.34852e-05
8.47058e-06 -4.42442e-06 1.24452e-05
1.15049e-05 -6.00349e-06 1.41107e-05
8.95648e-06 -7.13883e-06 1.34293e-05
6.14813e-06 -5.49496e-06 1.16424e-05
6.64517e-06 -8.3017e-06 1.30195e-05
4.1056e-06 -6.58916e-06 1.1312e-05
4.52381e-06 -9.55184e-06 1.29895e-05
2.24251e-06 -7.85906e-06 1.15985e-05
2.48508e-06 -1.1003e-05 1.33522e-05
2.25311e-07 -9.37462e-06 1.23548e-05
3.30043e-07 -1.27711e-05 1.40351e-05
-1.91563e-06 -1.11518e-05 1.33783e-05
-1.84125e-06 -7.9224e-06 1.15833e-05
-4.16833e-06 -9.87585e-06 1.30863e-05
-3.81432e-06 -6.73116e-06 1.13182e-05
-6.34627e-06 -8.6629e-06 1.31006e-05
-5.89188e-06 -5.69857e-06 1.16295e-05
-8.50059e-06 -7.43655e-06 1.3381e-05
-8.16836e-06 -4.72853e-06 1.24098e-05
-1.10968e-05 -6.40342e-06 1.40712e-05
-4.37211e-06 -1.31246e-05 1.4435e-05
-1.081e-05 -3.65105e-06 1.34405e-05
7.22687e-06 -1.13739e-05 1.42743e-05
-7.74247e-06 1.98288e-06 1.1494e-05
-1.32175e-05 1.03516e-06 1.42123e-05
1.72929e-06 1.50844e-05 1.49536e-05
1.37695e-05 4.62287e-07 1.43892e-05
1.38446e-05 6.10074e-06 1.49331e-05
-9.69507e-06 1.01973e-05 1.45339e-05
-5.41653e-06 -3.19796e-06 1.01832e-05
-1.17148e-05 -9.2983e-06 1.48906e-05
1.18836e-05 -8.76112e-06 1.47885e-05
1.47833e-05 -7.47438e-06 1.54048e-05
-1.39612e-05 -5.24444e-06 1.48631e-05
2.79611e-06 -1.45177e-05 1.47976e-05
4.24599e-07 -1.65011e-05 1.53992e-05
3.51877e-06 4.39736e-06 9.58211e-06
1.4012e-05 9.30002e-06 1.5493e-05
1.79326e-05 8.14581e-06 1.6302e-05
-1.56771e-05 1.13965e-05 1.62349e-05
-1.0942e-06 1.67708e-05 1.54967e-05
1.90703e-06 1.96236e-05 1.63124e-05
-2.09207e-06 5.22058e-06 9.5986e-06
5.55447e-06 -7.84678e-07 9.59515e-06
3.58629e-06 -3.68391e-06 9.08293e-06
-1.77981e-06 -5.17907e-06 9.4506e-06
-2.24709e-05 -1.10119e-05 1.74756e-05
-1.88001e-05 -9.24236e-06 1.66524e-05
2.11499e-05 1.41661e-05 1.75069e-05
2.07558e-05 -1.43189e-05 1.74369e-05
-1.76471e-06 -2.54489e-05 1.75122e-05
-1.68224e-06 2.5413e-05 1.75169e-05
1.77148e-05 -1.19081e-05 1.66886e-05
2.06477e-05 -1.07522e-05 1.71173e-05
3.776e-06 -1.89871e-05 1.61409e-05
7.6859e-07 -2.03479e-05 1.64843e-05
-1.9407e-05 -1.26517e-05 1.71445e-05
-1.37325e-05 -2.30717e-06 1.44733e-05
-1.65944e-05 -3.70183e-06 1.5479e-05
-1.03769e-05 -1.0965e-06 1.29534e-05
2.44543e-05 1.10739e-05 1.76529e-05
2.54998e-05 -1.24045e-05 1.78494e-05
2.64937e-06 2.67285e-05 1.76618e-05
2.52111e-06 -2.64161e-05 1.76306e-05
3.33972e-06 -2.30342e-05 1.70305e-05
-2.0541e-06 -1.83218e-05 1.59523e-05
4.05936e-06 2.37937e-05 1.71317e-05
2.26163e-05 8.38017e-06 1.71206e-05
4.61406e-06 1.73151e-05 1.57287e-05
1.44285e-05 -1.31208e-05 1.61388e-05
-1.57893e-05 -1.09858e-05 1.6216e-05
-1.68015e-05 -3.8147e-07 1.53788e-05
1.73077e-05 4.68798e-06 1.57271e-05
6.55266e-08 -6.38792e-06 1.02685e-05
1.74187e-06 -4.84891e-06 9.09343e-06
5.85102e-06 -2.93579e-06 1.03793e-05
-2.14464e-05 3.75094e-06 1.64603e-05
5.72994e-06 -1.62762e-05 1.55092e-05
9.08439e-06 -1.75008e-05 1.5999e-05
1.75739e-05 1.18828e-05 1.66737e-05
1.39957e-05 -1.63839e-05 1.64027e-05
1.07411e-05 -1.37904e-05 1.55516e-05
-3.5483e-06 -4.22058e-06 9.50175e-06
5.39962e-06 1.1386e-06 9.50004e-06
5.21854e-06 3.22318e-06 1.00483e-05
-1.74985e-06 -2.8357e-05 1.78781e-05
1.89223e-06 5.29938e-06 9.58544e-06
-1.13835e-07 6.10558e-06 1.00398e-05
-3.78527e-06 4.12812e-06 9.5794e-06
-5.62321e-06 3.03447e-06 1.02863e-05
-5.16594e-06 1.04077e-06 9.21456e-06
-7.52797e-06 -6.17454e-08 1.11736e-05
-4.33475e-06 -8.10348e-07 8.38272e-06
-3.10885e-06 1.87249e-06 7.37482e-06
-2.20834e-05 -3.60818e-06 1.65173e-05
2.34083e-05 -1.56892e-05 1.78373e-05
-1.50733e-06 2.117e-05 1.66834e-05
2.12638e-05 -8.45296e-08 1.62272e-05
1.76239e-05 -1.64698e-06 1.55829e-05
1.73495e-05 -4.94219e-06 1.57721e-05
2.18936e-05 -7.45191e-06 1.6915e-05
-2.31843e-05 -1.42558e-05 1.78339e-05
1.73264e-05 1.64905e-06 1.551e-05
-1.73406e-06 2.84755e-05 1.78953e-05
-4.22108e-07 3.68373e-06 7.49607e-06
2.3774e-05 1.57436e-05 1.78857e-05
-1.74991e-05 1.56437e-05 1.69763e-05
-1.06273e-05 -1.8468e-05 1.62566e-05
-1.01006e-05 -1.43438e-05 1.55731e-05
-7.50854e-06 -1.60965e-05 1.56235e-05
-7.32283e-06 -2.01226e-05 1.63967e-05
-1.07056e-05 1.85371e-05 1.62683e-05
-1.03484e-05 1.43856e-05 1.56208e-05
-7.77338e-06 2.04945e-05 1.64457e-05
-4.2534e-06 1.86116e-05 1.60544e-05
1.07608e-05 1.83473e-05 1.62277e-05
1.38931e-05 1.69366e-05 1.64325e-05
1.40434e-05 1.29742e-05 1.60527e-05
-7.36233e-06 1.629e-05 1.564e-05
1.05262e-05 1.45485e-05 1.56467e-05
7.74954e-06 1.6094e-05 1.56154e-05
-3.11673e-06 -1.89893e-06 7.39394e-06
-7.2584e-06 -1.24233e-05 1.46266e-05
3.00891e-06 4.03637e-08 6.60166e-06
4.87307e-06 1.35241e-05 1.46195e-05
1.40775e-05 -2.26062e-06 1.45719e-05
-1.72915e-05 -1.52181e-05 1.69469e-05
-1.73683e-05 2.42056e-06 1.55993e-05
-1.22059e-05 8.91284e-06 1.49449e-05
-7.70638e-06 -2.29274e-06 1.15559e-05
-1.24511e-05 1.18138e-05 1.55414e-05
-1.42748e-07 -3.75455e-06 7.55497e-06
2.73047e-06 2.27227e-06 7.25268e-06
-2.00407e-06 -1.4652e-05 1.48095e-05
9.36606e-06 -1.00693e-05 1.43908e-05
1.38622e-05 3.15814e-06 1.45675e-05
-7.3408e-06 1.12005e-05 1.42617e-05
4.99773e-06 -1.27761e-05 1.43707e-05
1.1033e-05 1.04316e-05 1.49211e-05
-3.59682e-06 1.46868e-05 1.49095e-05
-4.63594e-06 -1.66186e-05 1.55503e-05
-1.9509e-05 1.28937e-05 1.71626e-05
-2.3129e-05 1.48594e-05 1.78446e-05
-1.29063e-05 -1.26874e-05 1.5814e-05
3.76113e-06 -1.58626e-06 7.90778e-06
1.76455e-06 2.92254e-06 7.08518e-06
-9.23145e-06 -1.06106e-05 1.45332e-05
1.72789e-06 -2.8234e-06 6.93179e-06
9.9479e-07 2.41192e-05 1.73098e-05
2.137e-05 1.1195e-05 1.73e-05
-1.46661e-05 -7.95421e-06 1.54868e-05
1.37095e-05 -4.78682e-06 1.46921e-05
-1.91005e-06 -2.17651e-05 1.68041e-05
1.80622e-05 -8.41994e-06 1.63422e-05
-1.66806e-05 -6.32923e-06 1.57839e-05
-4.32936e-07 -1.92248e-06 4.79897e-06
-1.80553e-06 2.9957e-06 7.17793e-06
-2.50542e-05 -1.2983e-05 1.79235e-05
-2.51294e-05 -1.45085e-05 1.80033e-05
-2.50474e-05 1.30349e-05 1.79073e-05
-2.51202e-05 1.46512e-05 1.79834e-05
-1.6486e-06 -3.12512e-06 7.21067e-06
6.32861e-06 1.13696e-05 1.4078e-05
5.33738e-07 -2.40884e-05 1.73036e-05
-5.22821e-07 1.80969e-06 4.64549e-06
7.40824e-06 -1.43452e-05 1.51539e-05
2.3305e-05 -1.32106e-05 1.77301e-05
2.36349e-05 -1.05387e-05 1.74922e-05
1.19897e-05 -1.82129e-05 1.62948e-05
1.47317e-05 -1.01477e-05 1.57971e-05
-1.00281e-05 1.00135e-06 1.2756e-05
-1.74015e-06 -8.15968e-07 4.72394e-06
7.69132e-07 3.70868e-06 7.57395e-06
2.34328e-06 -1.99733e-06 6.55598e-06
2.01586e-05 5.89848e-06 1.64551e-05
5.07056e-06 2.05981e-05 1.64975e-05
3.42122e-07 -2.76825e-05 1.78553e-05
-1.73137e-06 7.09168e-07 4.6068e-06
-3.21179e-06 6.23102e-07 6.82486e-06
3.57754e-06 1.47555e-06 7.63744e-06
4.99234e-07 2.83264e-05 1.79285e-05
2.47625e-05 1.37353e-05 1.79197e-05
-2.03304e-05 1.55372e-05 1.74304e-05
1.1788e-06 1.36458e-06 4.46032e-06
-2.06417e-05 -1.57298e-05 1.75289e-05
-1.90009e-05 -2.32245e-06 1.59477e-05
-1.95612e-05 -5.58561e-06 1.63338e-05
9.05761e-07 -3.24804e-06 7.00685e-06
-4.36645e-06 -1.97914e-05 1.63234e-05
-7.93814e-06 1.38359e-05 1.51026e-05
1.16584e-06 -1.30429e-06 4.33975e-06
1.19357e-05 -1.12295e-05 1.52937e-05
6.13358e-06 -2.26984e-05 1.6822e-05
-1.45237e-05 1.43568e-05 1.63251e-05
7.92992e-06 1.33227e-05 1.49495e-05
1.79382e-06 8.58811e-07 -4.55271e-06
1.73795e-06 -8.25177e-07 -4.46125e-06
4.31986e-07 1.84976e-06 -4.49557e-06
4.36131e-07 -1.78076e-06 -4.35653e-06
-1.84763e-06 2.09652e-08 -4.42281e-06
-1.12317e-06 -1.30897e-06 -4.15142e-06
-1.15929e-06 1.30689e-06 -4.2002e-06
-2.25152e-05 -7.28848e-06 -1.70013e-05
-2.21985e-05 7.37237e-06 -1.697e-05
-4.86083e-06 2.29008e-05 -1.69384e-05
-4.85834e-06 -2.31339e-05 -1.69653e-05
1.7423e-05 1.56369e-05 -1.69312e-05
1.75706e-05 -1.55379e-05 -1.69405e-05
2.10757e-05 3.16425e-06 -1.63259e-05
-1.39546e-05 1.7153e-05 -1.64798e-05
-1.35926e-05 -1.67429e-05 -1.64114e-05
7.7686e-06 1.98216e-05 -1.63327e-05
7.68559e-06 -2.03121e-05 -1.64039e-05
2.14745e-05 -3.44414e-06 -1.64016e-05
-2.11049e-05 6.58817e-09 -1.62481e-05
-2.24224e-05 1.10008e-05 -1.74549e-05
-1.87527e-05 9.25562e-06 -1.66284e-05
-1.79846e-05 5.79605e-06 -1.60377e-05
-1.49855e-05 7.44908e-06 -1.54877e-05
-1.42259e-05 4.30816e-06 -1.4831e-05
-1.15338e-05 5.74447e-06 -1.4096e-05
-1.08591e-05 3.06904e-06 -1.33748e-05
-8.40132e-06 4.3053e-06 -1.24055e-05
-9.05972e-06 7.01411e-06 -1.34576e-05
-6.20471e-06 5.48904e-06 -1.16901e-05
-6.82899e-06 8.25027e-06 -1.30812e-05
-4.28182e-06 6.67556e-06 -1.14516e-05
-4.8005e-06 9.61089e-06 -1.30951e-05
-2.40111e-06 7.99413e-06 -1.17241e-05
-2.81314e-06 1.11684e-05 -1.34762e-05
-4.7546e-07 9.59625e-06 -1.25021e-05
-7.38432e-07 1.29982e-05 -1.4143e-05
1.73125e-06 1.15189e-05 -1.35362e-05
-5.53526e-06 1.27017e-05 -1.44383e-05
1.68524e-06 8.22478e-06 -1.17487e-05
4.00458e-06 1.01219e-05 -1.31522e-05
3.70571e-06 7.09864e-06 -1.14793e-05
6.06802e-06 8.96758e-06 -1.31146e-05
5.76739e-06 6.10739e-06 -1.17367e-05
8.35893e-06 8.02114e-06 -1.34933e-05
8.10646e-06 5.19579e-06 -1.25015e-05
1.09551e-05 7.09777e-06 -1.41483e-05
1.07471e-05 4.32323e-06 -1.35003e-05
8.5314e-06 1.10386e-05 -1.44621e-05
7.93847e-06 2.644e-06 -1.17285e-05
1.06471e-05 1.73738e-06 -1.31053e-05
7.94946e-06 3.58796e-07 -1.14567e-05
1.08075e-05 -7.59189e-07 -1.31254e-05
8.11244e-06 -1.93799e-06 -1.17102e-05
1.10994e-05 -3.31319e-06 -1.34852e-05
8.47058e-06 -4.42442e-06 -1.24452e-05
1.15049e-05 -6.00349e-06 -1.41107e-05
8.95648e-06 -7.13883e-06 -1.34293e-05
6.14813e-06 -5.49496e-06 -1.16424e-05
6.64517e-06 -8.3017e-06 -1.30195e-05
4.1056e-06 -6.58916e-06 -1.1312e-05
4.52381e-06 -9.55184e-06 -1.29895e-05
2.24251e-06 -7.85906e-06 -1.15985e-05
2.48508e-06 -1.1003e-05 -1.33522e-05
2.25311e-07 -9.37462e-06 -1.23548e-05
3.30043e-07 -1.27711e-05 -1.40351e-05
-1.91563e-06 -1.11518e-05 -1.33783e-05
-1.84125e-06 -7.9224e-06 -1.15833e-05
-4.16833e-06 -9.87585e-06 -1.30863e-05
-3.81432e-06 -6.73116e-06 -1.13182e-05
-6.34627e-06 -8.6629e-06 -1.31006e-05
-5.89188e-06 -5.69857e-06 -1.16295e-05
-8.50059e-06 -7.43655e-06 -1.3381e-05
-8.16836e-06 -4.72853e-06 -1.24098e-05
-1.10968e-05 -6.40342e-06 -1.40712e-05
-4.37211e-06 -1.31246e-05 -1.4435e-05
-1.081e-05 -3.65105e-06 -1.34405e-05
7.22687e-06 -1.13739e-05 -1.42743e-05
-7.74247e-06 1.98288e-06 -1.1494e-05
-1.32175e-05 1.03516e-06 -1.42123e-05
1.72929e-06 1.50844e-05 -1.49536e-05
1.37695e-05 4.62287e-07 -1.43892e-05
1.38446e-05 6.10074e-06 -1.49331e-05
-9.69507e-06 1.01973e-05 -1.45339e-05
-5.41653e-06 -3.19796e-06 -1.01832e-05
-1.17148e-05 -9.2983e-06 -1.48906e-05
1.18836e-05 -8.76112e-06 -1.47885e-05
1.47833e-05 -7.47438e-06 -1.54048e-05
-1.39612e-05 -5.24444e-06 -1.48631e-05
2.79611e-06 -1.45177e-05 -1.47976e-05
4.24599e-07 -1.65011e-05 -1.53992e-05
3.51877e-06 4.39736e-06 -9.58211e-06
1.4012e-05 9.30002e-06 -1.5493e-05
1.79326e-05 8.14581e-06 -1.6302e-05
-1.56771e-05 1.13965e-05 -1.62349e-05
-1.0942e-06 1.67708e-05 -1.54967e-05
1.90703e-06 1.96236e-05 -1.63124e-05
-2.09207e-06 5.22058e-06 -9.5986e-06
5.55447e-06 -7.84678e-07 -9.59515e-06
3.58629e-06 -3.68391e-06 -9.08293e-06
-1.77981e-06 -5.17907e-06 -9.4506e-06
-2.24709e-05 -1.10119e-05 -1.74756e-05
-1.88001e-05 -9.24236e-06 -1.66524e-05
2.11499e-05 1.41661e-05 -1.75069e-05
2.07558e-05 -1.43189e-05 -1.74369e-05
-1.76471e-06 -2.54489e-05 -1.75122e-05
-1.68224e-06 2.5413e-05 -1.75169e-05
1.77148e-05 -1.19081e-05 -1.66886e-05
2.06477e-05 -1.07522e-05 -1.71173e-05
3.776e-06 -1.89871e-05 -1.61409e-05
7.6859e-07 -2.03479e-05 -1.64843e-05
-1.9407e-05 -1.26517e-05 -1.71445e-05
-1.37325e-05 -2.30717e-06 -1.44733e-05
-1.65944e-05 -3.70183e-06 -1.5479e-05
-1.03769e-05 -1.0965e-06 -1.29534e-05
2.44543e-05 1.10739e-05 -1.76529e-05
2.54998e-05 -1.24045e-05 -1.78494e-05
2.64937e-06 2.67285e-05 -1.76618e-05
2.52111e-06 -2.64161e-05 -1.76306e-05
3.33972e-06 -2.30342e-05 -1.70305e-05
-2.0541e-06 -1.83218e-05 -1.59523e-05
4.05936e-06 2.37937e-05 -1.71317e-05
2.26163e-05 8.38017e-06 -1.71206e-05
4.61406e-06 1.73151e-05 -1.57287e-05
1.44285e-05 -1.31208e-05 -1.61388e-05
-1.57893e-05 -1.09858e-05 -1.6216e-05
-1.68015e-05 -3.8147e-07 -1.53788e-05
1.73077e-05 4.68798e-06 -1.57271e-05
6.55266e-08 -6.38792e-06 -1.02685e-05
1.74187e-06 -4.84891e-06 -9.09343e-06
5.85102e-06 -2.93579e-06 -1.03793e-05
-2.14464e-05 3.75094e-06 -1.64603e-05
5.72994e-06 -1.62762e-05 -1.55092e-05
9.08439e-06 -1.75008e-05 -1.5999e-05
1.75739e-05 1.18828e-05 -1.66737e-05
1.39957e-05 -1.63839e-05 -1.64027e-05
1.07411e-05 -1.37904e-05 -1.55516e-05
-3.5483e-06 -4.22058e-06 -9.50175e-06
5.39962e-06 1.1386e-06 -9.50004e-06
5.21854e-06 3.22318e-06 -1.00483e-05
-1.74985e-06 -2.8357e-05 -1.78781e-05
1.89223e-06 5.29938e-06 -9.58544e-06
-1.13835e-07 6.10558e-06 -1.00398e-05
-3.78527e-06 4.12812e-06 -9.5794e-06
-5.62321e-06 3.03447e-06 -1.02863e-05
-5.16594e-06 1.04077e-06 -9.21456e-06
-7.52797e-06 -6.17454e-08 -1.11736e-05
-4.33475e-06 -8.10348e-07 -8.38272e-06
-3.10885e-06 1.87249e-06 -7.37482e-06
-2.20834e-05 -3.60818e-06 -1.65173e-05
2.34083e-05 -1.56892e-05 -1.78373e-05
-1.50733e-06 2.117e-05 -1.66834e-05
2.12638e-05 -8.45296e-08 -1.62272e-05
1.76239e-05 -1.64698e-06 -1.55829e-05
1.73495e-05 -4.94219e-06 -1.57721e-05
2.18936e-05 -7.45191e-06 -1.6915e-05
-2.31843e-05 -1.42558e-05 -1.78339e-05
1.73264e-05 1.64905e-06 -1.551e-05
-1.73406e-06 2.84755e-05 -1.78953e-05