# vtk DataFile Version 3.0
vtk output at time 80
ASCII
DATASET UNSTRUCTURED_GRID
POINTS 626 float
-3.68058e-05 0.000978749 0 3.68058e-05 0.000978749 0 -0.000829194 0.00052125 0 
-0.0008235 0.0005 0 -0.000866 0.0004575 0 -0.000866 -0.0004575 0 
-0.0008235 -0.0005 0 -0.000829194 -0.00052125 0 -3.68058e-05 -0.000978749 0 
3.68058e-05 -0.000978749 0 0.000829194 -0.00052125 0 0.000866 -0.0004575 0 
0.000866 0.0004575 0 0.000829194 0.00052125 0 8.5e-05 0 0 
-3.68058e-05 0.000978749 -0.001 3.68058e-05 0.000978749 -0.001 -0.000829194 0.00052125 -0.001 
-0.0008235 0.0005 -0.001 -0.000866 0.0004575 -0.001 -0.000866 -0.0004575 -0.001 
-0.0008235 -0.0005 -0.001 -0.000829194 -0.00052125 -0.001 -3.68058e-05 -0.000978749 -0.001 
3.68058e-05 -0.000978749 -0.001 0.000829194 -0.00052125 -0.001 0.000866 -0.0004575 -0.001 
0.000866 0.0004575 -0.001 0.000829194 0.00052125 -0.001 8.5e-05 0 -0.001 
8.46223e-17 0.0009575 0 -0.000715996 0.000586607 0 -0.000602797 0.000651965 0 
-0.000489599 0.000717321 0 -0.000376401 0.000782678 0 -0.000263202 0.000848036 0 
-0.000150004 0.000913393 0 -0.000835948 0.000469948 0 -0.000866 -0.000326786 0 
-0.000866 -0.000196071 0 -0.000866 -6.53571e-05 0 -0.000866 6.53571e-05 0 
-0.000866 0.000196071 0 -0.000866 0.000326786 0 -0.000835948 -0.000469948 0 
-0.000150004 -0.000913393 0 -0.000263202 -0.000848036 0 -0.000376401 -0.000782678 0 
-0.000489599 -0.000717321 0 -0.000602797 -0.000651965 0 -0.000715996 -0.000586607 0 
8.47648e-17 -0.0009575 0 0.000715996 -0.000586607 0 0.000602797 -0.000651965 0 
0.000489599 -0.000717321 0 0.000376401 -0.000782678 0 0.000263202 -0.000848036 0 
0.000150004 -0.000913393 0 0.000829194 -0.00047875 0 0.000866 0.000326786 0 
0.000866 0.000196071 0 0.000866 6.53571e-05 0 0.000866 -6.53571e-05 0 
0.000866 -0.000196071 0 0.000866 -0.000326786 0 0.000829194 0.00047875 0 
0.000150004 0.000913393 0 0.000263202 0.000848036 0 0.000376401 0.000782678 0 
0.000489599 0.000717321 0 0.000602797 0.000651965 0 0.000715996 0.000586607 0 
5.29966e-05 6.64557e-05 0 -1.89143e-05 8.28689e-05 0 -7.65824e-05 3.68801e-05 0 
-7.65824e-05 -3.68801e-05 0 -1.89143e-05 -8.28689e-05 0 5.29966e-05 -6.64557e-05 0 
8.46223e-17 0.0009575 -0.001 -0.000715996 0.000586607 -0.001 -0.000602797 0.000651965 -0.001 
-0.000489599 0.000717321 -0.001 -0.000376401 0.000782678 -0.001 -0.000263202 0.000848036 -0.001 
-0.000150004 0.000913393 -0.001 -0.000835948 0.000469948 -0.001 -0.000866 -0.000326786 -0.001 
-0.000866 -0.000196071 -0.001 -0.000866 -6.53571e-05 -0.001 -0.000866 6.53571e-05 -0.001 
-0.000866 0.000196071 -0.001 -0.000866 0.000326786 -0.001 -0.000835948 -0.000469948 -0.001 
-0.000150004 -0.000913393 -0.001 -0.000263202 -0.000848036 -0.001 -0.000376401 -0.000782678 -0.001 
-0.000489599 -0.000717321 -0.001 -0.000602797 -0.000651965 -0.001 -0.000715996 -0.000586607 -0.001 
8.47648e-17 -0.0009575 -0.001 0.000715996 -0.000586607 -0.001 0.000602797 -0.000651965 -0.001 
0.000489599 -0.000717321 -0.001 0.000376401 -0.000782678 -0.001 0.000263202 -0.000848036 -0.001 
0.000150004 -0.000913393 -0.001 0.000829194 -0.00047875 -0.001 0.000866 0.000326786 -0.001 
0.000866 0.000196071 -0.001 0.000866 6.53571e-05 -0.001 0.000866 -6.53571e-05 -0.001 
0.000866 -0.000196071 -0.001 0.000866 -0.000326786 -0.001 0.000829194 0.00047875 -0.001 
0.000150004 0.000913393 -0.001 0.000263202 0.000848036 -0.001 0.000376401 0.000782678 -0.001 
0.000489599 0.000717321 -0.001 0.000602797 0.000651965 -0.001 0.000715996 0.000586607 -0.001 
5.29966e-05 6.64557e-05 -0.001 -1.89143e-05 8.28689e-05 -0.001 -7.65824e-05 3.68801e-05 -0.001 
-7.65824e-05 -3.68801e-05 -0.001 -1.89143e-05 -8.28689e-05 -0.001 5.29966e-05 -6.64557e-05 -0.001 
0.000131234 6.38474e-05 0 0.00012964 -6.2443e-05 0 3.13827e-05 0.0001394 0 
3.12554e-05 -0.000136939 0 -0.000140461 8.25467e-19 0 -8.90565e-05 -0.000102707 0 
-9.04142e-05 0.000102872 0 -0.000765769 -0.00025965 0 -0.000756873 0.000262774 0 
-0.00015609 0.000787505 0 -0.000155807 -0.00079355 0 0.000605069 0.000528035 0 
0.000608694 -0.00052497 0 0.000744069 0.000116929 0 -0.000494418 0.000596218 0 
-0.000483866 -0.000584648 0 0.000269496 0.000702219 0 0.000263201 -0.000717324 0 
0.000754429 -0.000127825 0 -0.000748858 5.84659e-07 0 -0.000747838 0.000373886 0 
-0.0006542 0.000324842 0 -0.000645137 0.000210123 0 -0.000550884 0.000274171 0 
-0.000538857 0.000163195 0 -0.00045062 0.000224461 0 -0.000438393 0.000123907 0 
-0.000354088 0.000181668 0 -0.000363908 0.000282171 0 -0.000270361 0.000239477 0 
-0.000279138 0.000337653 0 -0.000188888 0.000294791 0 -0.000196448 0.000393271 0 
-0.000104767 0.000348259 0 -0.000113332 0.000449012 0 -2.01066e-05 0.000403223 0 
-2.89189e-05 0.000507105 0 6.9524e-05 0.000461596 0 -0.000213644 0.000490203 0 
7.33757e-05 0.000357726 0 0.000163331 0.00041299 0 0.000163359 0.000313022 0 
0.000248077 0.000366368 0 0.000250914 0.000265758 0 0.000335709 0.000322266 0 
0.000340555 0.000218148 0 0.000427299 0.000276717 0 0.000431508 0.000173093 0 
0.000328731 0.000425633 0 0.00034586 0.000114823 0 0.000435362 7.05241e-05 0 
0.000350892 1.5455e-05 0 0.000441547 -3.11896e-05 0 0.000353547 -8.47783e-05 0 
0.000445767 -0.000132964 0 0.000356135 -0.000186358 0 0.000449094 -0.000234674 0 
0.000359978 -0.000287876 0 0.00026856 -0.000240545 0 0.000271895 -0.000341045 0 
0.000181792 -0.00029305 0 0.00018533 -0.000392851 0 9.75701e-05 -0.00034483 0 
9.98764e-05 -0.000444884 0 8.75116e-06 -0.000396343 0 1.20916e-05 -0.000500496 0 
-7.83929e-05 -0.000449843 0 -8.1471e-05 -0.000347249 0 -0.000171566 -0.000403733 0 
-0.000169889 -0.000298891 0 -0.000259867 -0.000354132 0 -0.000257696 -0.000249137 0 
-0.00034313 -0.000299896 0 -0.000344514 -0.000199127 0 -0.000434309 -0.000250039 0 
-0.000169832 -0.000505815 0 -0.000435227 -0.000146227 0 0.000280331 -0.000442424 0 
-0.000340889 8.76793e-05 0 -0.000515252 4.06198e-05 0 6.50491e-05 0.000568253 0 
0.00053278 1.74743e-05 0 0.000522071 0.000229831 0 -0.00037162 0.000391659 0 
-0.000255272 -0.000150439 0 -0.000442893 -0.000350705 0 0.000450067 -0.000332559 0 
0.000545175 -0.000276306 0 -0.000527797 -0.000197598 0 0.000105306 -0.000551033 0 
1.45836e-05 -0.000609147 0 0.00017145 0.000214453 0 0.000515525 0.000341711 0 
0.000636086 0.000290368 0 -0.000558657 0.000404468 0 -4.01232e-05 0.000616718 0 
6.60192e-05 0.000696422 0 -0.000101806 0.0002546 0 0.000271142 -3.88908e-05 0 
0.000179455 -0.00018534 0 -8.79553e-05 -0.000254307 0 -0.000749267 -0.000373451 0 
-0.000655941 -0.000323397 0 0.000709746 0.000466718 0 0.000698426 -0.000473086 0 
-5.25801e-05 -0.00084886 0 -4.93005e-05 0.000848038 0 0.000617396 -0.000413362 0 
0.000702056 -0.000369817 0 0.000131459 -0.000679171 0 2.48171e-05 -0.000715924 0 
-0.000664217 -0.00042729 0 -0.000528828 -8.80444e-05 0 -0.000611101 -0.000136672 0 
-0.000426972 -4.45841e-05 0 0.000800669 0.000378216 0 0.000821144 -0.000415062 0 
7.2799e-05 0.00088254 0 6.81831e-05 -0.00087503 0 0.000104963 -0.000788946 0 
-7.40696e-05 -0.000660054 0 0.000126061 0.000809943 0 0.000764361 0.000295682 0 
0.000166862 0.000630623 0 0.000516462 -0.00046707 0 -0.000563585 -0.000389606 0 
-0.000622598 -1.40238e-05 0 0.000629891 0.000171529 0 2.5614e-06 -0.000299794 0 
8.6901e-05 -0.00024329 0 0.000272045 -0.000136982 0 -0.00075148 0.000138321 0 
0.000209366 -0.000599589 0 0.000324913 -0.000630055 0 0.000614044 0.00041245 0 
0.00049651 -0.000573327 0 0.000394822 -0.000507321 0 -0.000173714 -0.000206698 0 
0.000264897 5.63722e-05 0 0.000247997 0.000152811 0 -4.63327e-05 -0.000920208 0 
9.18688e-05 0.000258626 0 -5.54111e-06 0.000290558 0 -0.000184219 0.000201484 0 
-0.000263559 0.000142267 0 -0.000256427 5.13624e-05 0 -0.000336894 -2.06179e-06 0 
-0.000228499 -4.2388e-05 0 -0.00017589 0.000106626 0 -0.000769947 -0.000133367 0 
0.000767591 -0.000500293 0 -5.05874e-05 0.000737978 0 0.000754456 -3.51771e-06 0 
0.00064691 -6.15298e-05 0 0.000630483 -0.00018134 0 0.000749187 -0.000265543 0 
-0.000760805 -0.000462521 0 0.000638155 6.09315e-05 0 -4.46661e-05 0.000922995 0 
-2.37945e-05 0.000207237 0 0.000776979 0.000500181 0 -0.000605691 0.000527596 0 
-0.000377914 -0.000653727 0 -0.000372325 -0.000526022 0 -0.000275829 -0.000589621 0 
-0.000254285 -0.000710579 0 -0.000379307 0.000656222 0 -0.000379818 0.00052718 0 
-0.000266817 0.000721555 0 -0.000150544 0.000668174 0 0.000381963 0.00065079 0 
0.000493113 0.000590432 0 0.000505439 0.000463708 0 -0.000269094 0.000596608 0 
0.000385815 0.000532045 0 0.000283599 0.0005899 0 -0.000176405 -0.000108505 0 
-0.000278769 -0.000475415 0 0.000185395 2.33014e-06 0 0.000186773 0.000517571 0 
0.000540032 -8.68444e-05 0 -0.000600694 -0.000514877 0 -0.00063703 8.98033e-05 0 
-0.000459677 0.000335729 0 -0.000338836 -0.000100751 0 -0.000457327 0.000432721 0 
-8.72007e-06 -0.000210238 0 0.000156073 0.000129496 0 -7.70692e-05 -0.000555049 0 
0.00036091 -0.000389728 0 0.000531628 0.000120564 0 -0.000285451 0.000435562 0 
0.000192719 -0.000494604 0 0.00041642 0.00039368 0 -0.000135943 0.000554637 0 
-0.000170665 -0.000610079 0 -0.000666304 0.000434981 0 -0.000758736 0.000479231 0 
-0.000470189 -0.000458901 0 0.000203433 -8.59809e-05 0 0.000101846 0.000170114 0 
-0.00035513 -0.00040726 0 0.000100184 -0.000165831 0 2.96286e-05 0.00081537 0 
0.000720946 0.000381836 0 -0.000539809 -0.000292001 0 0.00052211 -0.000182426 0 
-6.41339e-05 -0.000753908 0 0.000638039 -0.000299861 0 -0.000605136 -0.000230182 0 
-3.41638e-05 -0.000145561 0 -0.000104037 0.000172396 0 -0.000808575 -0.00042774 0 
-0.000807207 -0.000465052 0 -0.00080817 0.000429771 0 -0.000806589 0.000469738 0 
-9.50634e-05 -0.000178909 0 0.000247777 0.000445058 0 1.48293e-05 -0.000814201 0 
-4.11555e-05 0.000140955 0 0.000276104 -0.000536845 0 0.000765969 -0.000436638 0 
0.000780871 -0.000362769 0 0.000424176 -0.000642018 0 0.00053413 -0.000368009 0 
-0.000416333 4.17911e-05 0 -0.000133891 -6.23822e-05 0 4.2574e-05 0.000206312 0 
[...]
POINT_DATA 626
VECTORS displacement float
-1.74393e-06 3.0958e-05 1.80566e-05
1.73562e-06 3.0977e-05 1.81017e-05
-2.59893e-05 1.69946e-05 1.80887e-05
-2.58439e-05 1.60347e-05 1.80533e-05
-2.77237e-05 1.39746e-05 1.80707e-05
-2.77166e-05 -1.40209e-05 1.80961e-05
-2.58151e-05 -1.60729e-05 1.81075e-05
-2.59855e-05 -1.70126e-05 1.81686e-05
-1.67739e-06 -3.09617e-05 1.8053e-05
1.75543e-06 -3.09632e-05 1.81035e-05
2.59467e-05 -1.69824e-05 1.80451e-05
2.772e-05 -1.39385e-05 1.8045e-05
2.76755e-05 1.39912e-05 1.80933e-05
2.5918e-05 1.69947e-05 1.80477e-05
0 0 0
-1.74393e-06 3.0958e-05 -1.80566e-05
1.73562e-06 3.0977e-05 -1.81017e-05
-2.59893e-05 1.69946e-05 -1.80887e-05
-2.58439e-05 1.60347e-05 -1.80533e-05
-2.77237e-05 1.39746e-05 -1.80707e-05
-2.77166e-05 -1.40209e-05 -1.80961e-05
-2.58151e-05 -1.60729e-05 -1.81075e-05
-2.59855e-05 -1.70126e-05 -1.81686e-05
-1.67739e-06 -3.09617e-05 -1.8053e-05
1.75543e-06 -3.09632e-05 -1.81035e-05
2.59467e-05 -1.69824e-05 -1.80451e-05
2.772e-05 -1.39385e-05 -1.8045e-05
2.76755e-05 1.39912e-05 -1.80933e-05
2.5918e-05 1.69947e-05 -1.80477e-05
0 0 0
2.48794e-08 3.01578e-05 1.80358e-05
-2.11435e-05 1.87145e-05 1.75515e-05
-1.72351e-05 1.98363e-05 1.69228e-05
-1.4009e-05 2.10572e-05 1.6557e-05
-1.12084e-05 2.26681e-05 1.65509e-05
-8.525e-06 2.48364e-05 1.69033e-05
-5.56815e-06 2.76253e-05 1.75392e-05
-2.64528e-05 1.46808e-05 1.80351e-05
-2.6772e-05 -9.01303e-06 1.75792e-05
-2.58097e-05 -5.03644e-06 1.69279e-05
-2.52581e-05 -1.63654e-06 1.65735e-05
-2.5261e-05 1.60817e-06 1.65764e-05
-2.5802e-05 5.02382e-06 1.69261e-05
-2.67582e-05 8.9861e-06 1.75657e-05
-2.64397e-05 -1.47272e-05 1.80639e-05
-5.5414e-06 -2.76398e-05 1.75314e-05
-8.47752e-06 -2.48454e-05 1.69026e-05
-1.11716e-05 -2.26875e-05 1.65582e-05
-1.39727e-05 -2.10902e-05 1.65616e-05
-1.72175e-05 -1.98717e-05 1.69386e-05
-2.11371e-05 -1.87512e-05 1.7564e-05
8.98201e-08 -3.01425e-05 1.8031e-05
2.11269e-05 -1.86269e-05 1.75132e-05
1.72473e-05 -1.97647e-05 1.68748e-05
1.4036e-05 -2.10141e-05 1.65137e-05
1.12266e-05 -2.25963e-05 1.65482e-05
8.58214e-06 -2.47836e-05 1.68761e-05
5.655e-06 -2.763e-05 1.75368e-05
2.61275e-05 -1.50614e-05 1.803e-05
2.67201e-05 8.93992e-06 1.75033e-05
2.57255e-05 5.05056e-06 1.69104e-05
2.52102e-05 1.62365e-06 1.65253e-05
2.52073e-05 -1.59976e-06 1.65236e-05
2.57542e-05 -4.99834e-06 1.68903e-05
2.67022e-05 -8.91866e-06 1.75115e-05
2.61106e-05 1.50625e-05 1.8027e-05
5.63345e-06 2.76214e-05 1.75113e-05
8.50952e-06 2.48103e-05 1.69132e-05
1.12186e-05 2.26443e-05 1.65314e-05
1.40066e-05 2.10251e-05 1.65268e-05
1.72243e-05 1.9796e-05 1.68871e-05
2.11179e-05 1.86365e-05 1.75272e-05
0 0 0
0 0 0
0 0 0
0 0 0
0 0 0
0 0 0
2.48794e-08 3.01578e-05 -1.80358e-05
-2.11435e-05 1.87145e-05 -1.75515e-05
-1.72351e-05 1.98363e-05 -1.69228e-05
-1.4009e-05 2.10572e-05 -1.6557e-05
-1.12084e-05 2.26681e-05 -1.65509e-05
-8.525e-06 2.48364e-05 -1.69033e-05
-5.56815e-06 2.76253e-05 -1.75392e-05
-2.64528e-05 1.46808e-05 -1.80351e-05
-2.6772e-05 -9.01303e-06 -1.75792e-05
-2.58097e-05 -5.03644e-06 -1.69279e-05
-2.52581e-05 -1.63654e-06 -1.65735e-05
-2.5261e-05 1.60817e-06 -1.65764e-05
-2.5802e-05 5.02382e-06 -1.69261e-05
-2.67582e-05 8.9861e-06 -1.75657e-05
-2.64397e-05 -1.47272e-05 -1.80639e-05
-5.5414e-06 -2.76398e-05 -1.75314e-05
-8.47752e-06 -2.48454e-05 -1.69026e-05
-1.11716e-05 -2.26875e-05 -1.65582e-05
-1.39727e-05 -2.10902e-05 -1.65616e-05
-1.72175e-05 -1.98717e-05 -1.69386e-05
-2.11371e-05 -1.87512e-05 -1.7564e-05
8.98201e-08 -3.01425e-05 -1.8031e-05
2.11269e-05 -1.86269e-05 -1.75132e-05
1.72473e-05 -1.97647e-05 -1.68748e-05
1.4036e-05 -2.10141e-05 -1.65137e-05
1.12266e-05 -2.25963e-05 -1.65482e-05
8.58214e-06 -2.47836e-05 -1.68761e-05
5.655e-06 -2.763e-05 -1.75368e-05
2.61275e-05 -1.50614e-05 -1.803e-05
2.67201e-05 8.93992e-06 -1.75033e-05
2.57255e-05 5.05056e-06 -1.69104e-05
2.52102e-05 1.62365e-06 -1.65253e-05
2.52073e-05 -1.59976e-06 -1.65236e-05
2.57542e-05 -4.99834e-06 -1.68903e-05
2.67022e-05 -8.91866e-06 -1.75115e-05
2.61106e-05 1.50625e-05 -1.8027e-05
5.63345e-06 2.76214e-05 -1.75113e-05
8.50952e-06 2.48103e-05 -1.69132e-05
1.12186e-05 2.26443e-05 -1.65314e-05
1.40066e-05 2.10251e-05 -1.65268e-05
1.72243e-05 1.9796e-05 -1.68871e-05
2.11179e-05 1.86365e-05 -1.75272e-05
0 0 0
0 0 0
0 0 0
0 0 0
0 0 0
0 0 0
1.79387e-06 8.58836e-07 4.55289e-06
1.738e-06 -8.25201e-07 4.46143e-06
4.31999e-07 1.84982e-06 4.49574e-06
4.36143e-07 -1.78081e-06 4.35669e-06
-1.84768e-06 2.0966e-08 4.42298e-06
-1.1232e-06 -1.30901e-06 4.15158e-06
-1.15933e-06 1.30693e-06 4.20036e-06
-2.2516e-05 -7.28879e-06 1.70018e-05
-2.21993e-05 7.37267e-06 1.69705e-05
-4.86098e-06 2.29016e-05 1.69389e-05
-4.85849e-06 -2.31348e-05 1.69658e-05
1.74237e-05 1.56375e-05 1.69317e-05
1.75712e-05 -1.55384e-05 1.6941e-05
2.10765e-05 3.16439e-06 1.63264e-05
-1.39552e-05 1.71536e-05 1.64804e-05
-1.35931e-05 -1.67436e-05 1.64119e-05
7.76888e-06 1.98224e-05 1.63332e-05
7.68587e-06 -2.03129e-05 1.64045e-05
2.14753e-05 -3.44429e-06 1.64022e-05
-2.11057e-05 6.5882e-09 1.62487e-05
-2.24232e-05 1.10012e-05 1.74554e-05
-1.87534e-05 9.25597e-06 1.66289e-05
-1.79853e-05 5.79628e-06 1.60383e-05
-1.4986e-05 7.44937e-06 1.54883e-05
-1.42265e-05 4.30833e-06 1.48316e-05
-1.15342e-05 5.74469e-06 1.40966e-05
-1.08595e-05 3.06916e-06 1.33753e-05
-8.40164e-06 4.30546e-06 1.2406e-05
-9.06007e-06 7.01438e-06 1.34581e-05
-6.20494e-06 5.48925e-06 1.16906e-05
-6.82926e-06 8.25059e-06 1.30817e-05
-4.28198e-06 6.67581e-06 1.1452e-05
-4.80068e-06 9.61126e-06 1.30957e-05
-2.4012e-06 7.99443e-06 1.17245e-05
-2.81325e-06 1.11688e-05 1.34767e-05
-4.75479e-07 9.59661e-06 1.25026e-05
-7.38463e-07 1.29987e-05 1.41436e-05
1.73132e-06 1.15194e-05 1.35368e-05
-5.53548e-06 1.27022e-05 1.44388e-05
1.68531e-06 8.22509e-06 1.17491e-05
4.00474e-06 1.01223e-05 1.31527e-05
3.70585e-06 7.09891e-06 1.14798e-05
6.06825e-06 8.96793e-06 1.31151e-05
5.7676e-06 6.10762e-06 1.17371e-05
8.35925e-06 8.02145e-06 1.34938e-05
8.10677e-06 5.19598e-06 1.2502e-05
1.09555e-05 7.09805e-06 1.41488e-05
1.07475e-05 4.3234e-06 1.35009e-05
8.53174e-06 1.10391e-05 1.44626e-05
7.93877e-06 2.6441e-06 1.1729e-05
1.06475e-05 1.73744e-06 1.31058e-05
7.94976e-06 3.58809e-07 1.14571e-05
1.08079e-05 -7.59219e-07 1.31259e-05
8.11275e-06 -1.93807e-06 1.17107e-05
1.10998e-05 -3.31332e-06 1.34857e-05
8.4709e-06 -4.42459e-06 1.24457e-05
1.15053e-05 -6.00373e-06 1.41112e-05
8.95683e-06 -7.13911e-06 1.34298e-05
6.14836e-06 -5.49516e-06 1.16429e-05
6.64542e-06 -8.30203e-06 1.302e-05
4.10576e-06 -6.5894e-06 1.13125e-05
4.52399e-06 -9.55221e-06 1.299e-05
2.2426e-06 -7.85935e-06 1.15989e-05
2.48518e-06 -1.10034e-05 1.33527e-05
2.25318e-07 -9.37498e-06 1.23553e-05
3.30054e-07 -1.27716e-05 1.40357e-05
-1.91571e-06 -1.11523e-05 1.33788e-05
-1.84132e-06 -7.92269e-06 1.15838e-05
-4.16849e-06 -9.87623e-06 1.30868e-05
-3.81446e-06 -6.73141e-06 1.13187e-05
-6.34652e-06 -8.66324e-06 1.31011e-05
-5.8921e-06 -5.69879e-06 1.163e-05
-8.50092e-06 -7.43684e-06 1.33815e-05
-8.16867e-06 -4.72871e-06 1.24103e-05
-1.10972e-05 -6.40367e-06 1.40717e-05
-4.37228e-06 -1.31251e-05 1.44356e-05
-1.08104e-05 -3.65119e-06 1.3441e-05
7.22715e-06 -1.13744e-05 1.42749e-05
-7.74275e-06 1.98295e-06 1.14945e-05
-1.3218e-05 1.0352e-06 1.42128e-05
1.72936e-06 1.5085e-05 1.49542e-05
1.377e-05 4.62306e-07 1.43897e-05
1.38451e-05 6.10098e-06 1.49337e-05
-9.69545e-06 1.01977e-05 1.45344e-05
-5.41673e-06 -3.19808e-06 1.01836e-05
-1.17153e-05 -9.29866e-06 1.48912e-05
1.18841e-05 -8.76146e-06 1.47891e-05
1.47839e-05 -7.47467e-06 1.54053e-05
-1.39617e-05 -5.24464e-06 1.48636e-05
2.79621e-06 -1.45182e-05 1.47982e-05
4.24612e-07 -1.65018e-05 1.53997e-05
3.51889e-06 4.39751e-06 9.58249e-06
1.40126e-05 9.30038e-06 1.54936e-05
1.79333e-05 8.14613e-06 1.63025e-05
-1.56777e-05 1.13969e-05 1.62354e-05
-1.09424e-06 1.67715e-05 1.54973e-05
1.9071e-06 1.96244e-05 1.63129e-05
-2.09215e-06 5.22076e-06 9.59899e-06
5.55467e-06 -7.84706e-07 9.59554e-06
3.58642e-06 -3.68404e-06 9.0833e-06
-1.77987e-06 -5.17925e-06 9.45098e-06
-2.24717e-05 -1.10123e-05 1.74761e-05
-1.88008e-05 -9.24271e-06 1.6653e-05
2.11506e-05 1.41666e-05 1.75074e-05
2.07565e-05 -1.43194e-05 1.74374e-05
-1.76475e-06 -2.54498e-05 1.75127e-05
-1.68228e-06 2.54139e-05 1.75174e-05
1.77155e-05 -1.19085e-05 1.66891e-05
2.06485e-05 -1.07526e-05 1.71178e-05
3.77614e-06 -1.89878e-05 1.61414e-05
7.68611e-07 -2.03486e-05 1.64848e-05
-1.94077e-05 -1.26522e-05 1.7145e-05
-1.37331e-05 -2.30726e-06 1.44739e-05
-1.65951e-05 -3.70197e-06 1.54796e-05
-1.03773e-05 -1.09654e-06 1.29539e-05
2.44551e-05 1.10744e-05 1.76534e-05
2.55006e-05 -1.24049e-05 1.78498e-05
2.64941e-06 2.67294e-05 1.76622e-05
2.52116e-06 -2.6417e-05 1.76311e-05
3.33981e-06 -2.3035e-05 1.7031e-05
-2.05418e-06 -1.83225e-05 1.59529e-05
4.05947e-06 2.37946e-05 1.71323e-05
2.26171e-05 8.38051e-06 1.71211e-05
4.61423e-06 1.73158e-05 1.57293e-05
1.44291e-05 -1.31213e-05 1.61394e-05
-1.57899e-05 -1.09862e-05 1.62165e-05
-1.68022e-05 -3.81487e-07 1.53794e-05
1.73084e-05 4.68817e-06 1.57277e-05
6.55283e-08 -6.38815e-06 1.02689e-05
1.74193e-06 -4.84908e-06 9.0938e-06
5.85123e-06 -2.9359e-06 1.03797e-05
-2.14472e-05 3.75111e-06 1.64609e-05
5.73016e-06 -1.62768e-05 1.55098e-05
9.08475e-06 -1.75015e-05 1.59996e-05
1.75746e-05 1.18833e-05 1.66742e-05
1.39962e-05 -1.63845e-05 1.64033e-05
1.07415e-05 -1.37909e-05 1.55521e-05
-3.54842e-06 -4.22073e-06 9.50213e-06
5.39981e-06 1.13864e-06 9.50042e-06
5.21873e-06 3.22329e-06 1.00487e-05
-1.74987e-06 -2.83579e-05 1.78785e-05
1.8923e-06 5.29957e-06 9.58583e-06
-1.1384e-07 6.1058e-06 1.00402e-05
-3.78541e-06 4.12827e-06 9.57978e-06
-5.62341e-06 3.03458e-06 1.02867e-05
-5.16612e-06 1.0408e-06 9.21493e-06
-7.52825e-06 -6.17477e-08 1.1174e-05
-4.3349e-06 -8.10376e-07 8.38305e-06
-3.10895e-06 1.87256e-06 7.37511e-06
-2.20842e-05 -3.60834e-06 1.65178e-05
2.34091e-05 -1.56897e-05 1.78378e-05
-1.50738e-06 2.11708e-05 1.66839e-05
2.12647e-05 -8.45334e-08 1.62278e-05
1.76246e-05 -1.64704e-06 1.55835e-05
1.73501e-05 -4.94239e-06 1.57727e-05
2.18945e-05 -7.45222e-06 1.69155e-05
-2.3185e-05 -1.42563e-05 1.78343e-05
1.73271e-05 1.64912e-06 1.55106e-05
-1.73408e-06 2.84765e-05 1.78957e-05
-4.22122e-07 3.68386e-06 7.49637e-06
2.37748e-05 1.57441e-05 1.78862e-05
-1.74998e-05 1.56442e-05 1.69768e-05
-1.06277e-05 -1.84687e-05 1.62571e-05
-1.0101e-05 -1.43443e-05 1.55737e-05
-7.50884e-06 -1.60971e-05 1.56241e-05
-7.3231e-06 -2.01233e-05 1.63973e-05
-1.0706e-05 1.85378e-05 1.62689e-05
-1.03488e-05 1.43861e-05 1.56214e-05
-7.77367e-06 2.04953e-05 1.64463e-05
-4.25356e-06 1.86123e-05 1.6055e-05
1.07612e-05 1.8348e-05 1.62282e-05
1.38937e-05 1.69372e-05 1.6433e-05
1.40439e-05 1.29747e-05 1.60533e-05
-7.36262e-06 1.62906e-05 1.56406e-05
1.05266e-05 1.45491e-05 1.56473e-05
7.74984e-06 1.60946e-05 1.5616e-05
-3.11684e-06 -1.89899e-06 7.39424e-06
-7.25868e-06 -1.24238e-05 1.46272e-05
3.00901e-06 4.0365e-08 6.60192e-06
4.87326e-06 1.35247e-05 1.46201e-05
1.4078e-05 -2.26071e-06 1.45725e-05
-1.72922e-05 -1.52187e-05 1.69474e-05
-1.73689e-05 2.42066e-06 1.55999e-05
-1.22064e-05 8.91318e-06 1.49455e-05
-7.70667e-06 -2.29283e-06 1.15563e-05
-1.24515e-05 1.18143e-05 1.5542e-05
-1.42753e-07 -3.75468e-06 7.55526e-06
2.73056e-06 2.27235e-06 7.25297e-06
-2.00415e-06 -1.46526e-05 1.481e-05
9.36642e-06 -1.00697e-05 1.43914e-05
1.38627e-05 3.15827e-06 1.45681e-05
-7.34109e-06 1.1201e-05 1.42623e-05
4.99793e-06 -1.27766e-05 1.43713e-05
1.10334e-05 1.0432e-05 1.49217e-05
-3.59696e-06 1.46874e-05 1.491e-05
-4.63612e-06 -1.66192e-05 1.55509e-05
-1.95097e-05 1.28941e-05 1.71631e-05
-2.31298e-05 1.48599e-05 1.78451e-05
-1.29068e-05 -1.26879e-05 1.58146e-05
3.76126e-06 -1.58632e-06 7.9081e-06
1.7646e-06 2.92263e-06 7.08546e-06
-9.23181e-06 -1.0611e-05 1.45338e-05
1.72795e-06 -2.82349e-06 6.93206e-06
9.94812e-07 2.41201e-05 1.73103e-05
2.13708e-05 1.11954e-05 1.73005e-05
-1.46667e-05 -7.95451e-06 1.54874e-05
1.371e-05 -4.78701e-06 1.46927e-05
-1.91012e-06 -2.17659e-05 1.68047e-05
1.80629e-05 -8.42026e-06 1.63427e-05
-1.66813e-05 -6.32948e-06 1.57845e-05
-4.32949e-07 -1.92253e-06 4.79916e-06
-1.80559e-06 2.9958e-06 7.17822e-06
-2.5055e-05 -1.29835e-05 1.7924e-05
-2.51302e-05 -1.4509e-05 1.80038e-05
-2.50482e-05 1.30354e-05 1.79077e-05
-2.5121e-05 1.46517e-05 1.79838e-05
-1.64865e-06 -3.12522e-06 7.21096e-06
6.32886e-06 1.137e-05 1.40786e-05
5.33748e-07 -2.40893e-05 1.73041e-05
-5.22837e-07 1.80974e-06 4.64567e-06
7.40853e-06 -1.43458e-05 1.51545e-05
2.33058e-05 -1.3211e-05 1.77306e-05
2.36357e-05 -1.05391e-05 1.74926e-05
1.19902e-05 -1.82136e-05 1.62954e-05
1.47322e-05 -1.01481e-05 1.57976e-05
-1.00285e-05 1.00139e-06 1.27565e-05
-1.74021e-06 -8.15992e-07 4.72413e-06
7.69158e-07 3.70881e-06 7.57425e-06
2.34335e-06 -1.9974e-06 6.55624e-06
2.01594e-05 5.89873e-06 1.64557e-05
5.07073e-06 2.05989e-05 1.6498e-05
3.42123e-07 -2.76835e-05 1.78557e-05
-1.73142e-06 7.09189e-07 4.60698e-06
-3.21189e-06 6.23121e-07 6.82513e-06
3.57765e-06 1.47559e-06 7.63774e-06
4.99238e-07 2.83273e-05 1.7929e-05
2.47634e-05 1.37358e-05 1.79201e-05
-2.03311e-05 1.55377e-05 1.74309e-05
1.17884e-06 1.36462e-06 4.46049e-06
-2.06424e-05 -1.57303e-05 1.75294e-05
-1.90017e-05 -2.32255e-06 1.59483e-05
-1.95619e-05 -5.58584e-06 1.63343e-05
9.05791e-07 -3.24815e-06 7.00712e-06
-4.36661e-06 -1.97921e-05 1.63239e-05
-7.93845e-06 1.38364e-05 1.51032e-05
1.16588e-06 -1.30433e-06 4.33991e-06
1.19362e-05 -1.123e-05 1.52943e-05
6.13377e-06 -2.26993e-05 1.68225e-05
-1.45243e-05 1.43574e-05 1.63257e-05
7.93024e-06 1.33232e-05 1.49501e-05
1.79387e-06 8.58836e-07 -4.55289e-06
1.738e-06 -8.25201e-07 -4.46143e-06
4.31999e-07 1.84982e-06 -4.49574e-06
4.36143e-07 -1.78081e-06 -4.35669e-06
-1.84768e-06 2.0966e-08 -4.42298e-06
-1.1232e-06 -1.30901e-06 -4.15158e-06
-1.15933e-06 1.30693e-06 -4.20036e-06
-2.2516e-05 -7.28879e-06 -1.70018e-05
-2.21993e-05 7.37267e-06 -1.69705e-05
-4.86098e-06 2.29016e-05 -1.69389e-05
-4.85849e-06 -2.31348e-05 -1.69658e-05
1.74237e-05 1.56375e-05 -1.69317e-05
1.75712e-05 -1.55384e-05 -1.6941e-05
2.10765e-05 3.16439e-06 -1.63264e-05
-1.39552e-05 1.71536e-05 -1.64804e-05
-1.35931e-05 -1.67436e-05 -1.64119e-05
7.76888e-06 1.98224e-05 -1.63332e-05
7.68587e-06 -2.03129e-05 -1.64045e-05
2.14753e-05 -3.44429e-06 -1.64022e-05
-2.11057e-05 6.5882e-09 -1.62487e-05
-2.24232e-05 1.10012e-05 -1.74554e-05
-1.87534e-05 9.25597e-06 -1.66289e-05
-1.79853e-05 5.79628e-06 -1.60383e-05
-1.4986e-05 7.44937e-06 -1.54883e-05
-1.42265e-05 4.30833e-06 -1.48316e-05
-1.15342e-05 5.74469e-06 -1.40966e-05
-1.08595e-05 3.06916e-06 -1.33753e-05
-8.40164e-06 4.30546e-06 -1.2406e-05
-9.06007e-06 7.01438e-06 -1.34581e-05
-6.20494e-06 5.48925e-06 -1.16906e-05
-6.82926e-06 8.25059e-06 -1.30817e-05
-4.28198e-06 6.67581e-06 -1.1452e-05
-4.80068e-06 9.61126e-06 -1.30957e-05
-2.4012e-06 7.99443e-06 -1.17245e-05
-2.81325e-06 1.11688e-05 -1.34767e-05
-4.75479e-07 9.59661e-06 -1.25026e-05
-7.38463e-07 1.29987e-05 -1.41436e-05
1.73132e-06 1.15194e-05 -1.35368e-05
-5.53548e-06 1.27022e-05 -1.44388e-05
1.68531e-06 8.22509e-06 -1.17491e-05
4.00474e-06 1.01223e-05 -1.31527e-05
3.70585e-06 7.09891e-06 -1.14798e-05
6.06825e-06 8.96793e-06 -1.31151e-05
5.7676e-06 6.10762e-06 -1.17371e-05
8.35925e-06 8.02145e-06 -1.34938e-05
8.10677e-06 5.19598e-06 -1.2502e-05
1.09555e-05 7.09805e-06 -1.41488e-05
1.07475e-05 4.3234e-06 -1.35009e-05
8.53174e-06 1.10391e-05 -1.44626e-05
7.93877e-06 2.6441e-06 -1.1729e-05
1.06475e-05 1.73744e-06 -1.31058e-05
7.94976e-06 3.58809e-07 -1.14571e-05
1.08079e-05 -7.59219e-07 -1.31259e-05
8.11275e-06 -1.93807e-06 -1.17107e-05
1.10998e-05 -3.31332e-06 -1.34857e-05
8.4709e-06 -4.42459e-06 -1.24457e-05
1.15053e-05 -6.00373e-06 -1.41112e-05
8.95683e-06 -7.13911e-06 -1.34298e-05
6.14836e-06 -5.49516e-06 -1.16429e-05
6.64542e-06 -8.30203e-06 -1.302e-05
4.10576e-06 -6.5894e-06 -1.13125e-05
4.52399e-06 -9.55221e-06 -1.299e-05
2.2426e-06 -7.85935e-06 -1.15989e-05
2.48518e-06 -1.10034e-05 -1.33527e-05
2.25318e-07 -9.37498e-06 -1.23553e-05
3.30054e-07 -1.27716e-05 -1.40357e-05
-1.91571e-06 -1.11523e-05 -1.33788e-05
-1.84132e-06 -7.92269e-06 -1.15838e-05
-4.16849e-06 -9.87623e-06 -1.30868e-05
-3.81446e-06 -6.73141e-06 -1.13187e-05
-6.34652e-06 -8.66324e-06 -1.31011e-05
-5.8921e-06 -5.69879e-06 -1.163e-05
-8.50092e-06 -7.43684e-06 -1.33815e-05
-8.16867e-06 -4.72871e-06 -1.24103e-05
-1.10972e-05 -6.40367e-06 -1.40717e-05
-4.37228e-06 -1.31251e-05 -1.44356e-05
-1.08104e-05 -3.65119e-06 -1.3441e-05
7.22715e-06 -1.13744e-05 -1.42749e-05
-7.74275e-06 1.98295e-06 -1.14945e-05
-1.3218e-05 1.0352e-06 -1.42128e-05
1.72936e-06 1.5085e-05 -1.49542e-05
1.377e-05 4.62306e-07 -1.43897e-05
1.38451e-05 6.10098e-06 -1.49337e-05
-9.69545e-06 1.01977e-05 -1.45344e-05
-5.41673e-06 -3.19808e-06 -1.01836e-05
-1.17153e-05 -9.29866e-06 -1.48912e-05
1.18841e-05 -8.76146e-06 -1.47891e-05
1.47839e-05 -7.47467e-06 -1.54053e-05
-1.39617e-05 -5.24464e-06 -1.48636e-05
2.79621e-06 -1.45182e-05 -1.47982e-05
4.24612e-07 -1.65018e-05 -1.53997e-05
3.51889e-06 4.39751e-06 -9.58249e-06
1.40126e-05 9.30038e-06 -1.54936e-05
1.79333e-05 8.14613e-06 -1.63025e-05
-1.56777e-05 1.13969e-05 -1.62354e-05
-1.09424e-06 1.67715e-05 -1.54973e-05
1.9071e-06 1.96244e-05 -1.63129e-05
-2.09215e-06 5.22076e-06 -9.59899e-06
5.55467e-06 -7.84706e-07 -9.59554e-06
3.58642e-06 -3.68404e-06 -9.0833e-06
-1.77987e-06 -5.17925e-06 -9.45098e-06
-2.24717e-05 -1.10123e-05 -1.74761e-05
-1.88008e-05 -9.24271e-06 -1.6653e-05
2.11506e-05 1.41666e-05 -1.75074e-05
2.07565e-05 -1.43194e-05 -1.74374e-05
-1.76475e-06 -2.54498e-05 -1.75127e-05
-1.68228e-06 2.54139e-05 -1.75174e-05
1.77155e-05 -1.19085e-05 -1.66891e-05
2.06485e-05 -1.07526e-05 -1.71178e-05
3.77614e-06 -1.89878e-05 -1.61414e-05
7.68611e-07 -2.03486e-05 -1.64848e-05
-1.94077e-05 -1.26522e-05 -1.7145e-05
-1.37331e-05 -2.30726e-06 -1.44739e-05
-1.65951e-05 -3.70197e-06 -1.54796e-05
-1.03773e-05 -1.09654e-06 -1.29539e-05
2.44551e-05 1.10744e-05 -1.76534e-05
2.55006e-05 -1.24049e-05 -1.78498e-05
2.64941e-06 2.67294e-05 -1.76622e-05
2.52116e-06 -2.6417e-05 -1.76311e-05
3.33981e-06 -2.3035e-05 -1.7031e-05
-2.05418e-06 -1.83225e-05 -1.59529e-05
4.05947e-06 2.37946e-05 -1.71323e-05
2.26171e-05 8.38051e-06 -1.71211e-05
4.61423e-06 1.73158e-05 -1.57293e-05
1.44291e-05 -1.31213e-05 -1.61394e-05
-1.57899e-05 -1.09862e-05 -1.62165e-05
-1.68022e-05 -3.81487e-07 -1.53794e-05
1.73084e-05 4.68817e-06 -1.57277e-05
6.55283e-08 -6.38815e-06 -1.02689e-05
1.74193e-06 -4.84908e-06 -9.0938e-06
5.85123e-06 -2.9359e-06 -1.03797e-05
-2.14472e-05 3.75111e-06 -1.64609e-05
5.73016e-06 -1.62768e-05 -1.55098e-05
9.08475e-06 -1.75015e-05 -1.59996e-05
1.75746e-05 1.18833e-05 -1.66742e-05
1.39962e-05 -1.63845e-05 -1.64033e-05
1.07415e-05 -1.37909e-05 -1.55521e-05
-3.54842e-06 -4.22073e-06 -9.50213e-06
5.39981e-06 1.13864e-06 -9.50042e-06
5.21873e-06 3.22329e-06 -1.00487e-05
-1.74987e-06 -2.83579e-05 -1.78785e-05
1.8923e-06 5.29957e-06 -9.58583e-06
-1.1384e-07 6.1058e-06 -1.00402e-05
-3.78541e-06 4.12827e-06 -9.57978e-06
-5.62341e-06 3.03458e-06 -1.02867e-05
-5.16612e-06 1.0408e-06 -9.21493e-06
-7.52825e-06 -6.17477e-08 -1.1174e-05
-4.3349e-06 -8.10376e-07 -8.38305e-06
-3.10895e-06 1.87256e-06 -7.37511e-06
-2.20842e-05 -3.60834e-06 -1.65178e-05
2.34091e-05 -1.56897e-05 -1.78378e-05
-1.50738e-06 2.11708e-05 -1.66839e-05
2.12647e-05 -8.45334e-08 -1.62278e-05
1.76246e-05 -1.64704e-06 -1.55835e-05
1.73501e-05 -4.94239e-06 -1.57727e-05
2.18945e-05 -7.45222e-06 -1.69155e-05
-2.3185e-05 -1.42563e-05 -1.78343e-05
1.73271e-05 1.64912e-06 -1.55106e-05
-1.73408e-06 2.84765e-05 -1.78957e-05