# vtk DataFile Version 3.0
vtk output at time 140
ASCII
DATASET UNSTRUCTURED_GRID
POINTS 626 float
-3.68058e-05 0.000978749 0 3.68058e-05 0.000978749 0 -0.000829194 0.00052125 0 
-0.0008235 0.0005 0 -0.000866 0.0004575 0 -0.000866 -0.0004575 0 
-0.0008235 -0.0005 0 -0.000829194 -0.00052125 0 -3.68058e-05 -0.000978749 0 
3.68058e-05 -0.000978749 0 0.000829194 -0.00052125 0 0.000866 -0.0004575 0 
0.000866 0.0004575 0 0.000829194 0.00052125 0 8.5e-05 0 0 
-3.68058e-05 0.000978749 -0.001 3.68058e-05 0.000978749 -0.001 -0.000829194 0.00052125 -0.001 
-0.0008235 0.0005 -0.001 -0.000866 0.0004575 -0.001 -0.000866 -0.0004575 -0.001 
-0.0008235 -0.0005 -0.001 -0.000829194 -0.00052125 -0.001 -3.68058e-05 -0.000978749 -0.001 
3.68058e-05 -0.000978749 -0.001 0.000829194 -0.00052125 -0.001 0.000866 -0.0004575 -0.001 
0.000866 0.0004575 -0.001 0.000829194 0.00052125 -0.001 8.5e-05 0 -0.001 
8.46223e-17 0.0009575 0 -0.000715996 0.000586607 0 -0.000602797 0.000651965 0 
-0.000489599 0.000717321 0 -0.000376401 0.000782678 0 -0.000263202 0.000848036 0 
-0.000150004 0.000913393 0 -0.000835948 0.000469948 0 -0.000866 -0.000326786 0 
-0.000866 -0.000196071 0 -0.000866 -6.53571e-05 0 -0.000866 6.53571e-05 0 
-0.000866 0.000196071 0 -0.000866 0.000326786 0 -0.000835948 -0.000469948 0 
-0.000150004 -0.000913393 0 -0.000263202 -0.000848036 0 -0.000376401 -0.000782678 0 
-0.000489599 -0.000717321 0 -0.000602797 -0.000651965 0 -0.000715996 -0.000586607 0 
8.47648e-17 -0.0009575 0 0.000715996 -0.000586607 0 0.000602797 -0.000651965 0 
0.000489599 -0.000717321 0 0.000376401 -0.000782678 0 0.000263202 -0.000848036 0 
0.000150004 -0.000913393 0 0.000829194 -0.00047875 0 0.000866 0.000326786 0 
0.000866 0.000196071 0 0.000866 6.53571e-05 0 0.000866 -6.53571e-05 0 
0.000866 -0.000196071 0 0.000866 -0.000326786 0 0.000829194 0.00047875 0 
0.000150004 0.000913393 0 0.000263202 0.000848036 0 0.000376401 0.000782678 0 
0.000489599 0.000717321 0 0.000602797 0.000651965 0 0.000715996 0.000586607 0 
5.29966e-05 6.64557e-05 0 -1.89143e-05 8.28689e-05 0 -7.65824e-05 3.68801e-05 0 
-7.65824e-05 -3.68801e-05 0 -1.89143e-05 -8.28689e-05 0 5.29966e-05 -6.64557e-05 0 
8.46223e-17 0.0009575 -0.001 -0.000715996 0.000586607 -0.001 -0.000602797 0.000651965 -0.001 
-0.000489599 0.000717321 -0.001 -0.000376401 0.000782678 -0.001 -0.000263202 0.000848036 -0.001 
-0.000150004 0.000913393 -0.001 -0.000835948 0.000469948 -0.001 -0.000866 -0.000326786 -0.001 
-0.000866 -0.000196071 -0.001 -0.000866 -6.53571e-05 -0.001 -0.000866 6.53571e-05 -0.001 
-0.000866 0.000196071 -0.001 -0.000866 0.000326786 -0.001 -0.000835948 -0.000469948 -0.001 
-0.000150004 -0.000913393 -0.001 -0.000263202 -0.000848036 -0.001 -0.000376401 -0.000782678 -0.001 
-0.000489599 -0.000717321 -0.001 -0.000602797 -0.000651965 -0.001 -0.000715996 -0.000586607 -0.001 
8.47648e-17 -0.0009575 -0.001 0.000715996 -0.000586607 -0.001 0.000602797 -0.000651965 -0.001 
0.000489599 -0.000717321 -0.001 0.000376401 -0.000782678 -0.001 0.000263202 -0.000848036 -0.001 
0.000150004 -0.000913393 -0.001 0.000829194 -0.00047875 -0.001 0.000866 0.000326786 -0.001 
0.000866 0.000196071 -0.001 0.000866 6.53571e-05 -0.001 0.000866 -6.53571e-05 -0.001 
0.000866 -0.000196071 -0.001 0.000866 -0.000326786 -0.001 0.000829194 0.00047875 -0.001 
0.000150004 0.000913393 -0.001 0.000263202 0.000848036 -0.001 0.000376401 0.000782678 -0.001 
0.000489599 0.000717321 -0.001 0.000602797 0.000651965 -0.001 0.000715996 0.000586607 -0.001 
5.29966e-05 6.64557e-05 -0.001 -1.89143e-05 8.28689e-05 -0.001 -7.65824e-05 3.68801e-05 -0.001 
-7.65824e-05 -3.68801e-05 -0.001 -1.89143e-05 -8.28689e-05 -0.001 5.29966e-05 -6.64557e-05 -0.001 
0.000131234 6.38474e-05 0 0.00012964 -6.2443e-05 0 3.13827e-05 0.0001394 0 
3.12554e-05 -0.000136939 0 -0.000140461 8.25467e-19 0 -8.90565e-05 -0.000102707 0 
-9.04142e-05 0.000102872 0 -0.000765769 -0.00025965 0 -0.000756873 0.000262774 0 
-0.00015609 0.000787505 0 -0.000155807 -0.00079355 0 0.000605069 0.000528035 0 
0.000608694 -0.00052497 0 0.000744069 0.000116929 0 -0.000494418 0.000596218 0 
-0.000483866 -0.000584648 0 0.000269496 0.000702219 0 0.000263201 -0.000717324 0 
0.000754429 -0.000127825 0 -0.000748858 5.84659e-07 0 -0.000747838 0.000373886 0 
-0.0006542 0.000324842 0 -0.000645137 0.000210123 0 -0.000550884 0.000274171 0 
-0.000538857 0.000163195 0 -0.00045062 0.000224461 0 -0.000438393 0.000123907 0 
-0.000354088 0.000181668 0 -0.000363908 0.000282171 0 -0.000270361 0.000239477 0 
-0.000279138 0.000337653 0 -0.000188888 0.000294791 0 -0.000196448 0.000393271 0 
-0.000104767 0.000348259 0 -0.000113332 0.000449012 0 -2.01066e-05 0.000403223 0 
-2.89189e-05 0.000507105 0 6.9524e-05 0.000461596 0 -0.000213644 0.000490203 0 
7.33757e-05 0.000357726 0 0.000163331 0.00041299 0 0.000163359 0.000313022 0 
0.000248077 0.000366368 0 0.000250914 0.000265758 0 0.000335709 0.000322266 0 
0.000340555 0.000218148 0 0.000427299 0.000276717 0 0.000431508 0.000173093 0 
0.000328731 0.000425633 0 0.00034586 0.000114823 0 0.000435362 7.05241e-05 0 
0.000350892 1.5455e-05 0 0.000441547 -3.11896e-05 0 0.000353547 -8.47783e-05 0 
0.000445767 -0.000132964 0 0.000356135 -0.000186358 0 0.000449094 -0.000234674 0 
0.000359978 -0.000287876 0 0.00026856 -0.000240545 0 0.000271895 -0.000341045 0 
0.000181792 -0.00029305 0 0.00018533 -0.000392851 0 9.75701e-05 -0.00034483 0 
9.98764e-05 -0.000444884 0 8.75116e-06 -0.000396343 0 1.20916e-05 -0.000500496 0 
-7.83929e-05 -0.000449843 0 -8.1471e-05 -0.000347249 0 -0.000171566 -0.000403733 0 
-0.000169889 -0.000298891 0 -0.000259867 -0.000354132 0 -0.000257696 -0.000249137 0 
-0.00034313 -0.000299896 0 -0.000344514 -0.000199127 0 -0.000434309 -0.000250039 0 
-0.000169832 -0.000505815 0 -0.000435227 -0.000146227 0 0.000280331 -0.000442424 0 
-0.000340889 8.76793e-05 0 -0.000515252 4.06198e-05 0 6.50491e-05 0.000568253 0 
0.00053278 1.74743e-05 0 0.000522071 0.000229831 0 -0.00037162 0.000391659 0 
-0.000255272 -0.000150439 0 -0.000442893 -0.000350705 0 0.000450067 -0.000332559 0 
0.000545175 -0.000276306 0 -0.000527797 -0.000197598 0 0.000105306 -0.000551033 0 
1.45836e-05 -0.000609147 0 0.00017145 0.000214453 0 0.000515525 0.000341711 0 
0.000636086 0.000290368 0 -0.000558657 0.000404468 0 -4.01232e-05 0.000616718 0 
6.60192e-05 0.000696422 0 -0.000101806 0.0002546 0 0.000271142 -3.88908e-05 0 
0.000179455 -0.00018534 0 -8.79553e-05 -0.000254307 0 -0.000749267 -0.000373451 0 
-0.000655941 -0.000323397 0 0.000709746 0.000466718 0 0.000698426 -0.000473086 0 
-5.25801e-05 -0.00084886 0 -4.93005e-05 0.000848038 0 0.000617396 -0.000413362 0 
0.000702056 -0.000369817 0 0.000131459 -0.000679171 0 2.48171e-05 -0.000715924 0 
-0.000664217 -0.00042729 0 -0.000528828 -8.80444e-05 0 -0.000611101 -0.000136672 0 
-0.000426972 -4.45841e-05 0 0.000800669 0.000378216 0 0.000821144 -0.000415062 0 
7.2799e-05 0.00088254 0 6.81831e-05 -0.00087503 0 0.000104963 -0.000788946 0 
-7.40696e-05 -0.000660054 0 0.000126061 0.000809943 0 0.000764361 0.000295682 0 
0.000166862 0.000630623 0 0.000516462 -0.00046707 0 -0.000563585 -0.000389606 0 
-0.000622598 -1.40238e-05 0 0.000629891 0.000171529 0 2.5614e-06 -0.000299794 0 
8.6901e-05 -0.00024329 0 0.000272045 -0.000136982 0 -0.00075148 0.000138321 0 
0.000209366 -0.000599589 0 0.000324913 -0.000630055 0 0.000614044 0.00041245 0 
0.00049651 -0.000573327 0 0.000394822 -0.000507321 0 -0.000173714 -0.000206698 0 
0.000264897 5.63722e-05 0 0.000247997 0.000152811 0 -4.63327e-05 -0.000920208 0 
9.18688e-05 0.000258626 0 -5.54111e-06 0.000290558 0 -0.000184219 0.000201484 0 
-0.000263559 0.000142267 0 -0.000256427 5.13624e-05 0 -0.000336894 -2.06179e-06 0 
-0.000228499 -4.2388e-05 0 -0.00017589 0.000106626 0 -0.000769947 -0.000133367 0 
0.000767591 -0.000500293 0 -5.05874e-05 0.000737978 0 0.000754456 -3.51771e-06 0 
0.00064691 -6.15298e-05 0 0.000630483 -0.00018134 0 0.000749187 -0.000265543 0 
-0.000760805 -0.000462521 0 0.000638155 6.09315e-05 0 -4.46661e-05 0.000922995 0 
-2.37945e-05 0.000207237 0 0.000776979 0.000500181 0 -0.000605691 0.000527596 0 
-0.000377914 -0.000653727 0 -0.000372325 -0.000526022 0 -0.000275829 -0.000589621 0 
-0.000254285 -0.000710579 0 -0.000379307 0.000656222 0 -0.000379818 0.00052718 0 
-0.000266817 0.000721555 0 -0.000150544 0.000668174 0 0.000381963 0.00065079 0 
0.000493113 0.000590432 0 0.000505439 0.000463708 0 -0.000269094 0.000596608 0 
0.000385815 0.000532045 0 0.000283599 0.0005899 0 -0.000176405 -0.000108505 0 
-0.000278769 -0.000475415 0 0.000185395 2.33014e-06 0 0.000186773 0.000517571 0 
0.000540032 -8.68444e-05 0 -0.000600694 -0.000514877 0 -0.00063703 8.98033e-05 0 
-0.000459677 0.000335729 0 -0.000338836 -0.000100751 0 -0.000457327 0.000432721 0 
-8.72007e-06 -0.000210238 0 0.000156073 0.000129496 0 -7.70692e-05 -0.000555049 0 
0.00036091 -0.000389728 0 0.000531628 0.000120564 0 -0.000285451 0.000435562 0 
0.000192719 -0.000494604 0 0.00041642 0.00039368 0 -0.000135943 0.000554637 0 
-0.000170665 -0.000610079 0 -0.000666304 0.000434981 0 -0.000758736 0.000479231 0 
-0.000470189 -0.000458901 0 0.000203433 -8.59809e-05 0 0.000101846 0.000170114 0 
-0.00035513 -0.00040726 0 0.000100184 -0.000165831 0 2.96286e-05 0.00081537 0 
0.000720946 0.000381836 0 -0.000539809 -0.000292001 0 0.00052211 -0.000182426 0 
-6.41339e-05 -0.000753908 0 0.000638039 -0.000299861 0 -0.000605136 -0.000230182 0 
-3.41638e-05 -0.000145561 0 -0.000104037 0.000172396 0 -0.000808575 -0.00042774 0 
-0.000807207 -0.000465052 0 -0.00080817 0.000429771 0 -0.000806589 0.000469738 0 
-9.50634e-05 -0.000178909 0 0.000247777 0.000445058 0 1.48293e-05 -0.000814201 0 
-4.11555e-05 0.000140955 0 0.000276104 -0.000536845 0 0.000765969 -0.000436638 0 
0.000780871 -0.000362769 0 0.000424176 -0.000642018 0 0.00053413 -0.000368009 0 
-0.000416333 4.17911e-05 0 -0.000133891 -6.23822e-05 0 4.2574e-05 0.000206312 0 
[...]
POINT_DATA 626
VECTORS displacement float
-1.74394e-06 3.09558e-05 1.80556e-05
1.73564e-06 3.09748e-05 1.81007e-05
-2.59874e-05 1.69935e-05 1.80877e-05
-2.58421e-05 1.60337e-05 1.80523e-05
-2.77218e-05 1.39735e-05 1.80697e-05
-2.77148e-05 -1.40198e-05 1.80951e-05
-2.58132e-05 -1.60718e-05 1.81065e-05
-2.59836e-05 -1.70116e-05 1.81677e-05
-1.6774e-06 -3.09595e-05 1.8052e-05
1.75544e-06 -3.0961e-05 1.81025e-05
2.59448e-05 -1.69813e-05 1.80441e-05
2.77182e-05 -1.39374e-05 1.8044e-05
2.76736e-05 1.39901e-05 1.80923e-05
2.59161e-05 1.69936e-05 1.80466e-05
0 0 0
-1.74394e-06 3.09558e-05 -1.80556e-05
1.73564e-06 3.09748e-05 -1.81007e-05
-2.59874e-05 1.69935e-05 -1.80877e-05
-2.58421e-05 1.60337e-05 -1.80523e-05
-2.77218e-05 1.39735e-05 -1.80697e-05
-2.77148e-05 -1.40198e-05 -1.80951e-05
-2.58132e-05 -1.60718e-05 -1.81065e-05
-2.59836e-05 -1.70116e-05 -1.81677e-05
-1.6774e-06 -3.09595e-05 -1.8052e-05
1.75544e-06 -3.0961e-05 -1.81025e-05
2.59448e-05 -1.69813e-05 -1.80441e-05
2.77182e-05 -1.39374e-05 -1.8044e-05
2.76736e-05 1.39901e-05 -1.80923e-05
2.59161e-05 1.69936e-05 -1.80466e-05
0 0 0
2.48887e-08 3.01556e-05 1.80348e-05
-2.11417e-05 1.87132e-05 1.75504e-05
-1.72335e-05 1.98348e-05 1.69216e-05
-1.40077e-05 2.10553e-05 1.65557e-05
-1.12074e-05 2.26661e-05 1.65496e-05
-8.52443e-06 2.48342e-05 1.69021e-05
-5.56793e-06 2.76231e-05 1.75381e-05
-2.6451e-05 1.46798e-05 1.80341e-05
-2.677e-05 -9.01209e-06 1.75781e-05
-2.58075e-05 -5.03583e-06 1.69267e-05
-2.52558e-05 -1.63633e-06 1.65722e-05
-2.52588e-05 1.60797e-06 1.65751e-05
-2.57998e-05 5.02323e-06 1.69249e-05
-2.67562e-05 8.98517e-06 1.75646e-05
-2.64379e-05 -1.47261e-05 1.80628e-05
-5.54119e-06 -2.76375e-05 1.75303e-05
-8.47695e-06 -2.48432e-05 1.69014e-05
-1.11706e-05 -2.26855e-05 1.65569e-05
-1.39714e-05 -2.10883e-05 1.65603e-05
-1.72159e-05 -1.98701e-05 1.69374e-05
-2.11353e-05 -1.875e-05 1.75629e-05
8.98324e-08 -3.01404e-05 1.803e-05
2.11251e-05 -1.86256e-05 1.75121e-05
1.72457e-05 -1.97631e-05 1.68736e-05
1.40347e-05 -2.10123e-05 1.65123e-05
1.12256e-05 -2.25942e-05 1.65469e-05
8.58158e-06 -2.47814e-05 1.68749e-05
5.6548e-06 -2.76278e-05 1.75356e-05
2.61257e-05 -1.50603e-05 1.8029e-05
2.6718e-05 8.93897e-06 1.75022e-05
2.57234e-05 5.04995e-06 1.69091e-05
2.52079e-05 1.62344e-06 1.65239e-05
2.5205e-05 -1.59955e-06 1.65222e-05
2.5752e-05 -4.99774e-06 1.6889e-05
2.67001e-05 -8.91772e-06 1.75103e-05
2.61087e-05 1.50615e-05 1.8026e-05
5.63325e-06 2.76191e-05 1.75102e-05
8.50896e-06 2.48081e-05 1.69119e-05
1.12176e-05 2.26423e-05 1.65301e-05
1.40053e-05 2.10232e-05 1.65255e-05
1.72227e-05 1.97944e-05 1.68858e-05
2.11161e-05 1.86352e-05 1.7526e-05
0 0 0
0 0 0
0 0 0
0 0 0
0 0 0
0 0 0
2.48887e-08 3.01556e-05 -1.80348e-05
-2.11417e-05 1.87132e-05 -1.75504e-05
-1.72335e-05 1.98348e-05 -1.69216e-05
-1.40077e-05 2.10553e-05 -1.65557e-05
-1.12074e-05 2.26661e-05 -1.65496e-05
-8.52443e-06 2.48342e-05 -1.69021e-05
-5.56793e-06 2.76231e-05 -1.75381e-05
-2.6451e-05 1.46798e-05 -1.80341e-05
-2.677e-05 -9.01209e-06 -1.75781e-05
-2.58075e-05 -5.03583e-06 -1.69267e-05
-2.52558e-05 -1.63633e-06 -1.65722e-05
-2.52588e-05 1.60797e-06 -1.65751e-05
-2.57998e-05 5.02323e-06 -1.69249e-05
-2.67562e-05 8.98517e-06 -1.75646e-05
-2.64379e-05 -1.47261e-05 -1.80628e-05
-5.54119e-06 -2.76375e-05 -1.75303e-05
-8.47695e-06 -2.48432e-05 -1.69014e-05
-1.11706e-05 -2.26855e-05 -1.65569e-05
-1.39714e-05 -2.10883e-05 -1.65603e-05
-1.72159e-05 -1.98701e-05 -1.69374e-05
-2.11353e-05 -1.875e-05 -1.75629e-05
8.98324e-08 -3.01404e-05 -1.803e-05
2.11251e-05 -1.86256e-05 -1.75121e-05
1.72457e-05 -1.97631e-05 -1.68736e-05
1.40347e-05 -2.10123e-05 -1.65123e-05
1.12256e-05 -2.25942e-05 -1.65469e-05
8.58158e-06 -2.47814e-05 -1.68749e-05
5.6548e-06 -2.76278e-05 -1.75356e-05
2.61257e-05 -1.50603e-05 -1.8029e-05
2.6718e-05 8.93897e-06 -1.75022e-05
2.57234e-05 5.04995e-06 -1.69091e-05
2.52079e-05 1.62344e-06 -1.65239e-05
2.5205e-05 -1.59955e-06 -1.65222e-05
2.5752e-05 -4.99774e-06 -1.6889e-05
2.67001e-05 -8.91772e-06 -1.75103e-05
2.61087e-05 1.50615e-05 -1.8026e-05
5.63325e-06 2.76191e-05 -1.75102e-05
8.50896e-06 2.48081e-05 -1.69119e-05
1.12176e-05 2.26423e-05 -1.65301e-05
1.40053e-05 2.10232e-05 -1.65255e-05
1.72227e-05 1.97944e-05 -1.68858e-05
2.11161e-05 1.86352e-05 -1.7526e-05
0 0 0
0 0 0
0 0 0
0 0 0
0 0 0
0 0 0
1.79375e-06 8.58779e-07 4.55248e-06
1.73789e-06 -8.25146e-07 4.46103e-06
4.3197e-07 1.8497e-06 4.49535e-06
4.36115e-07 -1.7807e-06 4.35631e-06
-1.84756e-06 2.09642e-08 4.42259e-06
-1.12313e-06 -1.30892e-06 4.15121e-06
-1.15925e-06 1.30685e-06 4.19999e-06
-2.25142e-05 -7.28808e-06 1.70006e-05
-2.21975e-05 7.37197e-06 1.69693e-05
-4.86064e-06 2.28997e-05 1.69377e-05
-4.85815e-06 -2.31328e-05 1.69646e-05
1.74221e-05 1.56362e-05 1.69305e-05
1.75697e-05 -1.55372e-05 1.69398e-05
2.10746e-05 3.16407e-06 1.63251e-05
-1.39539e-05 1.71521e-05 1.64791e-05
-1.35919e-05 -1.67421e-05 1.64106e-05
7.76823e-06 1.98206e-05 1.63319e-05
7.68523e-06 -2.0311e-05 1.64032e-05
2.14734e-05 -3.44394e-06 1.64009e-05
-2.11038e-05 6.58813e-09 1.62474e-05
-2.24214e-05 1.10003e-05 1.74542e-05
-1.87518e-05 9.25516e-06 1.66277e-05
-1.79837e-05 5.79575e-06 1.6037e-05
-1.49847e-05 7.44871e-06 1.5487e-05
-1.42252e-05 4.30794e-06 1.48303e-05
-1.15332e-05 5.74418e-06 1.40953e-05
-1.08586e-05 3.06889e-06 1.33741e-05
-8.40091e-06 4.30509e-06 1.24049e-05
-9.05926e-06 7.01376e-06 1.34569e-05
-6.20441e-06 5.48878e-06 1.16895e-05
-6.82865e-06 8.24986e-06 1.30805e-05
-4.28161e-06 6.67524e-06 1.1451e-05
-4.80025e-06 9.61041e-06 1.30945e-05
-2.40099e-06 7.99374e-06 1.17235e-05
-2.813e-06 1.11678e-05 1.34755e-05
-4.75435e-07 9.59577e-06 1.25015e-05
-7.38394e-07 1.29976e-05 1.41423e-05
1.73117e-06 1.15184e-05 1.35356e-05
-5.53497e-06 1.2701e-05 1.44375e-05
1.68516e-06 8.22438e-06 1.17481e-05
4.00438e-06 1.01214e-05 1.31515e-05
3.70553e-06 7.0983e-06 1.14787e-05
6.06771e-06 8.96713e-06 1.31139e-05
5.76711e-06 6.10709e-06 1.17361e-05
8.35851e-06 8.02073e-06 1.34926e-05
8.10606e-06 5.19553e-06 1.25009e-05
1.09546e-05 7.09742e-06 1.41476e-05
1.07465e-05 4.32302e-06 1.34996e-05
8.53097e-06 1.10381e-05 1.44614e-05
7.93809e-06 2.64388e-06 1.17279e-05
1.06466e-05 1.73729e-06 1.31046e-05
7.94908e-06 3.58778e-07 1.14561e-05
1.0807e-05 -7.59151e-07 1.31247e-05
8.11205e-06 -1.9379e-06 1.17096e-05
1.10988e-05 -3.31302e-06 1.34845e-05
8.47016e-06 -4.4242e-06 1.24446e-05
1.15043e-05 -6.00319e-06 1.411e-05
8.95603e-06 -7.13848e-06 1.34286e-05
6.14783e-06 -5.49469e-06 1.16418e-05
6.64484e-06 -8.30129e-06 1.30188e-05
4.10541e-06 -6.58884e-06 1.13114e-05
4.52359e-06 -9.55136e-06 1.29889e-05
2.2424e-06 -7.85868e-06 1.15979e-05
2.48496e-06 -1.10025e-05 1.33515e-05
2.25301e-07 -9.37416e-06 1.23541e-05
3.30029e-07 -1.27705e-05 1.40344e-05
-1.91554e-06 -1.11513e-05 1.33776e-05
-1.84116e-06 -7.92201e-06 1.15827e-05
-4.16812e-06 -9.87536e-06 1.30856e-05
-3.81413e-06 -6.73083e-06 1.13176e-05
-6.34595e-06 -8.66247e-06 1.30999e-05
-5.8916e-06 -5.6983e-06 1.16289e-05
-8.50016e-06 -7.43618e-06 1.33803e-05
-8.16796e-06 -4.7283e-06 1.24092e-05
-1.10962e-05 -6.4031e-06 1.40705e-05
-4.37189e-06 -1.31239e-05 1.44343e-05
-1.08094e-05 -3.65087e-06 1.34398e-05
7.2265e-06 -1.13734e-05 1.42736e-05
-7.74209e-06 1.98279e-06 1.14934e-05
-1.32168e-05 1.03511e-06 1.42116e-05
1.72921e-06 1.50836e-05 1.49529e-05
1.37688e-05 4.62263e-07 1.43885e-05
1.38439e-05 6.10043e-06 1.49324e-05
-9.69458e-06 1.01968e-05 1.45332e-05
-5.41628e-06 -3.19781e-06 1.01826e-05
-1.17142e-05 -9.29783e-06 1.48899e-05
1.1883e-05 -8.76068e-06 1.47878e-05
1.47826e-05 -7.474e-06 1.5404e-05
-1.39605e-05 -5.24417e-06 1.48624e-05
2.79597e-06 -1.45169e-05 1.47969e-05
4.24581e-07 -1.65003e-05 1.53985e-05
3.51861e-06 4.39716e-06 9.58161e-06
1.40113e-05 9.29955e-06 1.54923e-05
1.79317e-05 8.1454e-06 1.63013e-05
-1.56763e-05 1.13959e-05 1.62342e-05
-1.09415e-06 1.677e-05 1.5496e-05
1.90695e-06 1.96227e-05 1.63117e-05
-2.09197e-06 5.22034e-06 9.59811e-06
5.55422e-06 -7.84642e-07 9.59465e-06
3.58613e-06 -3.68374e-06 9.08246e-06
-1.77973e-06 -5.17883e-06 9.45011e-06
-2.24699e-05 -1.10114e-05 1.7475e-05
-1.87991e-05 -9.24191e-06 1.66518e-05
2.11489e-05 1.41655e-05 1.75063e-05
2.07548e-05 -1.43183e-05 1.74362e-05
-1.76466e-06 -2.54478e-05 1.75116e-05
-1.68219e-06 2.54118e-05 1.75163e-05
1.77139e-05 -1.19075e-05 1.66879e-05
2.06468e-05 -1.07516e-05 1.71167e-05
3.77583e-06 -1.89862e-05 1.61401e-05
7.68562e-07 -2.03469e-05 1.64836e-05
-1.94061e-05 -1.26512e-05 1.71438e-05
-1.37318e-05 -2.30705e-06 1.44726e-05
-1.65936e-05 -3.70163e-06 1.54783e-05
-1.03764e-05 -1.09644e-06 1.29527e-05
2.44532e-05 1.10734e-05 1.76523e-05
2.54987e-05 -1.24039e-05 1.78488e-05
2.64931e-06 2.67273e-05 1.76611e-05
2.52106e-06 -2.64149e-05 1.763e-05
3.3396e-06 -2.30331e-05 1.70298e-05
-2.054e-06 -1.83209e-05 1.59516e-05
4.05922e-06 2.37926e-05 1.71311e-05
2.26153e-05 8.37972e-06 1.712e-05
4.61384e-06 1.73143e-05 1.5728e-05
1.44278e-05 -1.31201e-05 1.61381e-05
-1.57885e-05 -1.09853e-05 1.62153e-05
-1.68007e-05 -3.81449e-07 1.53781e-05
1.73068e-05 4.68773e-06 1.57264e-05
6.55243e-08 -6.38762e-06 1.0268e-05
1.74179e-06 -4.84869e-06 9.09296e-06
5.85074e-06 -2.93565e-06 1.03787e-05
-2.14453e-05 3.75073e-06 1.64596e-05
5.72965e-06 -1.62753e-05 1.55085e-05
9.08393e-06 -1.74999e-05 1.59982e-05
1.7573e-05 1.18823e-05 1.6673e-05
1.3995e-05 -1.63831e-05 1.6402e-05
1.07405e-05 -1.37897e-05 1.55508e-05
-3.54814e-06 -4.22039e-06 9.50126e-06
5.39937e-06 1.13855e-06 9.49954e-06
5.2183e-06 3.22303e-06 1.00478e-05
-1.74982e-06 -2.83558e-05 1.78775e-05
1.89215e-06 5.29914e-06 9.58495e-06
-1.1383e-07 6.10529e-06 1.00393e-05
-3.7851e-06 4.12793e-06 9.5789e-06
-5.62294e-06 3.03433e-06 1.02858e-05
-5.16571e-06 1.04072e-06 9.21409e-06
-7.52761e-06 -6.17423e-08 1.1173e-05
-4.33456e-06 -8.10313e-07 8.38229e-06
-3.10872e-06 1.87242e-06 7.37444e-06
-2.20823e-05 -3.60797e-06 1.65165e-05
2.34073e-05 -1.56886e-05 1.78367e-05
-1.50726e-06 2.11689e-05 1.66827e-05
2.12627e-05 -8.45246e-08 1.62265e-05
1.7623e-05 -1.64689e-06 1.55822e-05
1.73486e-05 -4.94193e-06 1.57714e-05
2.18926e-05 -7.45151e-06 1.69143e-05
-2.31832e-05 -1.42552e-05 1.78333e-05
1.73255e-05 1.64896e-06 1.55093e-05
-1.73403e-06 2.84743e-05 1.78947e-05
-4.2209e-07 3.68358e-06 7.49569e-06
2.3773e-05 1.5743e-05 1.78852e-05
-1.74982e-05 1.5643e-05 1.69756e-05
-1.06268e-05 -1.8467e-05 1.62558e-05
-1.01001e-05 -1.43431e-05 1.55724e-05
-7.50816e-06 -1.60957e-05 1.56228e-05
-7.32248e-06 -2.01215e-05 1.6396e-05
-1.0705e-05 1.85362e-05 1.62675e-05
-1.03479e-05 1.43848e-05 1.56201e-05
-7.77301e-06 2.04935e-05 1.6445e-05
-4.2532e-06 1.86106e-05 1.60537e-05
1.07602e-05 1.83464e-05 1.62269e-05
1.38924e-05 1.69358e-05 1.64317e-05
1.40427e-05 1.29735e-05 1.6052e-05
-7.36195e-06 1.62891e-05 1.56392e-05
1.05257e-05 1.45478e-05 1.56459e-05
7.74915e-06 1.60931e-05 1.56147e-05
-3.1166e-06 -1.89885e-06 7.39357e-06
-7.25802e-06 -1.24226e-05 1.46259e-05
3.00879e-06 4.03619e-08 6.60132e-06
4.87283e-06 1.35234e-05 1.46188e-05
1.40767e-05 -2.26051e-06 1.45712e-05
-1.72906e-05 -1.52174e-05 1.69462e-05
-1.73674e-05 2.42043e-06 1.55986e-05
-1.22053e-05 8.91239e-06 1.49442e-05
-7.70601e-06 -2.29263e-06 1.15553e-05
-1.24504e-05 1.18132e-05 1.55407e-05
-1.42742e-07 -3.75439e-06 7.55458e-06
2.73035e-06 2.27218e-06 7.25231e-06
-2.00397e-06 -1.46512e-05 1.48088e-05
9.36558e-06 -1.00688e-05 1.43901e-05
1.38615e-05 3.15798e-06 1.45668e-05
-7.34043e-06 1.12e-05 1.4261e-05
4.99748e-06 -1.27755e-05 1.437e-05
1.10324e-05 1.04311e-05 1.49204e-05
-3.59663e-06 1.4686e-05 1.49088e-05
-4.63571e-06 -1.66178e-05 1.55496e-05
-1.95081e-05 1.28931e-05 1.7162e-05
-2.3128e-05 1.48588e-05 1.78441e-05
-1.29056e-05 -1.26868e-05 1.58133e-05
3.76097e-06 -1.5862e-06 7.90738e-06
1.76447e-06 2.92241e-06 7.08481e-06
-9.23097e-06 -1.061e-05 1.45325e-05
1.72782e-06 -2.82328e-06 6.93144e-06
9.94762e-07 2.41181e-05 1.73092e-05
2.1369e-05 1.11944e-05 1.72993e-05
-1.46654e-05 -7.95381e-06 1.54861e-05
1.37088e-05 -4.78658e-06 1.46914e-05
-1.90997e-06 -2.17641e-05 1.68035e-05
1.80613e-05 -8.41952e-06 1.63415e-05
-1.66798e-05 -6.32891e-06 1.57832e-05
-4.32919e-07 -1.9224e-06 4.79873e-06
-1.80545e-06 2.99558e-06 7.17757e-06
-2.50531e-05 -1.29824e-05 1.79229e-05
-2.51283e-05 -1.45079e-05 1.80027e-05
-2.50463e-05 1.30343e-05 1.79067e-05
-2.51192e-05 1.46506e-05 1.79828e-05
-1.64853e-06 -3.12499e-06 7.2103e-06
6.32829e-06 1.1369e-05 1.40773e-05
5.33725e-07 -2.40873e-05 1.73029e-05
-5.228e-07 1.80962e-06 4.64526e-06
7.40786e-06 -1.43445e-05 1.51532e-05
2.3304e-05 -1.321e-05 1.77295e-05
2.36338e-05 -1.05381e-05 1.74915e-05
1.19891e-05 -1.82119e-05 1.62941e-05
1.47309e-05 -1.01472e-05 1.57964e-05
-1.00276e-05 1.0013e-06 1.27553e-05
-1.74009e-06 -8.15936e-07 4.72371e-06
7.691e-07 3.70853e-06 7.57356e-06
2.34318e-06 -1.99725e-06 6.55565e-06
2.01576e-05 5.89817e-06 1.64544e-05
5.07033e-06 2.05971e-05 1.64968e-05
3.4212e-07 -2.76813e-05 1.78547e-05
-1.7313e-06 7.09141e-07 4.60657e-06
-3.21165e-06 6.23076e-07 6.82452e-06
3.57738e-06 1.47548e-06 7.63705e-06
4.9923e-07 2.83252e-05 1.79279e-05
2.47615e-05 1.37347e-05 1.79191e-05
-2.03294e-05 1.55366e-05 1.74297e-05
1.17876e-06 1.36453e-06 4.4601e-06
-2.06407e-05 -1.57291e-05 1.75283e-05
-1.89999e-05 -2.32232e-06 1.5947e-05
-1.95602e-05 -5.58531e-06 1.6333e-05
9.05724e-07 -3.2479e-06 7.00649e-06
-4.36625e-06 -1.97904e-05 1.63226e-05
-7.93773e-06 1.38352e-05 1.51019e-05
1.1658e-06 -1.30424e-06 4.33953e-06
1.19351e-05 -1.1229e-05 1.5293e-05
6.13334e-06 -2.26973e-05 1.68213e-05
-1.4523e-05 1.43561e-05 1.63244e-05
7.92952e-06 1.3322e-05 1.49488e-05
1.79375e-06 8.58779e-07 -4.55248e-06
1.73789e-06 -8.25146e-07 -4.46103e-06
4.3197e-07 1.8497e-06 -4.49535e-06
4.36115e-07 -1.7807e-06 -4.35631e-06
-1.84756e-06 2.09642e-08 -4.42259e-06
-1.12313e-06 -1.30892e-06 -4.15121e-06
-1.15925e-06 1.30685e-06 -4.19999e-06
-2.25142e-05 -7.28808e-06 -1.70006e-05
-2.21975e-05 7.37197e-06 -1.69693e-05
-4.86064e-06 2.28997e-05 -1.69377e-05
-4.85815e-06 -2.31328e-05 -1.69646e-05
1.74221e-05 1.56362e-05 -1.69305e-05
1.75697e-05 -1.55372e-05 -1.69398e-05
2.10746e-05 3.16407e-06 -1.63251e-05
-1.39539e-05 1.71521e-05 -1.64791e-05
-1.35919e-05 -1.67421e-05 -1.64106e-05
7.76823e-06 1.98206e-05 -1.63319e-05
7.68523e-06 -2.0311e-05 -1.64032e-05
2.14734e-05 -3.44394e-06 -1.64009e-05
-2.11038e-05 6.58813e-09 -1.62474e-05
-2.24214e-05 1.10003e-05 -1.74542e-05
-1.87518e-05 9.25516e-06 -1.66277e-05
-1.79837e-05 5.79575e-06 -1.6037e-05
-1.49847e-05 7.44871e-06 -1.5487e-05
-1.42252e-05 4.30794e-06 -1.48303e-05
-1.15332e-05 5.74418e-06 -1.40953e-05
-1.08586e-05 3.06889e-06 -1.33741e-05
-8.40091e-06 4.30509e-06 -1.24049e-05
-9.05926e-06 7.01376e-06 -1.34569e-05
-6.20441e-06 5.48878e-06 -1.16895e-05
-6.82865e-06 8.24986e-06 -1.30805e-05
-4.28161e-06 6.67524e-06 -1.1451e-05
-4.80025e-06 9.61041e-06 -1.30945e-05
-2.40099e-06 7.99374e-06 -1.17235e-05
-2.813e-06 1.11678e-05 -1.34755e-05
-4.75435e-07 9.59577e-06 -1.25015e-05
-7.38394e-07 1.29976e-05 -1.41423e-05
1.73117e-06 1.15184e-05 -1.35356e-05
-5.53497e-06 1.2701e-05 -1.44375e-05
1.68516e-06 8.22438e-06 -1.17481e-05
4.00438e-06 1.01214e-05 -1.31515e-05
3.70553e-06 7.0983e-06 -1.14787e-05
6.06771e-06 8.96713e-06 -1.31139e-05
5.76711e-06 6.10709e-06 -1.17361e-05
8.35851e-06 8.02073e-06 -1.34926e-05
8.10606e-06 5.19553e-06 -1.25009e-05
1.09546e-05 7.09742e-06 -1.41476e-05
1.07465e-05 4.32302e-06 -1.34996e-05
8.53097e-06 1.10381e-05 -1.44614e-05
7.93809e-06 2.64388e-06 -1.17279e-05
1.06466e-05 1.73729e-06 -1.31046e-05
7.94908e-06 3.58778e-07 -1.14561e-05
1.0807e-05 -7.59151e-07 -1.31247e-05
8.11205e-06 -1.9379e-06 -1.17096e-05
1.10988e-05 -3.31302e-06 -1.34845e-05
8.47016e-06 -4.4242e-06 -1.24446e-05
1.15043e-05 -6.00319e-06 -1.411e-05
8.95603e-06 -7.13848e-06 -1.34286e-05
6.14783e-06 -5.49469e-06 -1.16418e-05
6.64484e-06 -8.30129e-06 -1.30188e-05
4.10541e-06 -6.58884e-06 -1.13114e-05
4.52359e-06 -9.55136e-06 -1.29889e-05
2.2424e-06 -7.85868e-06 -1.15979e-05
2.48496e-06 -1.10025e-05 -1.33515e-05
2.25301e-07 -9.37416e-06 -1.23541e-05
3.30029e-07 -1.27705e-05 -1.40344e-05
-1.91554e-06 -1.11513e-05 -1.33776e-05
-1.84116e-06 -7.92201e-06 -1.15827e-05
-4.16812e-06 -9.87536e-06 -1.30856e-05
-3.81413e-06 -6.73083e-06 -1.13176e-05
-6.34595e-06 -8.66247e-06 -1.30999e-05
-5.8916e-06 -5.6983e-06 -1.16289e-05
-8.50016e-06 -7.43618e-06 -1.33803e-05
-8.16796e-06 -4.7283e-06 -1.24092e-05
-1.10962e-05 -6.4031e-06 -1.40705e-05
-4.37189e-06 -1.31239e-05 -1.44343e-05
-1.08094e-05 -3.65087e-06 -1.34398e-05
7.2265e-06 -1.13734e-05 -1.42736e-05
-7.74209e-06 1.98279e-06 -1.14934e-05
-1.32168e-05 1.03511e-06 -1.42116e-05
1.72921e-06 1.50836e-05 -1.49529e-05
1.37688e-05 4.62263e-07 -1.43885e-05
1.38439e-05 6.10043e-06 -1.49324e-05
-9.69458e-06 1.01968e-05 -1.45332e-05
-5.41628e-06 -3.19781e-06 -1.01826e-05
-1.17142e-05 -9.29783e-06 -1.48899e-05
1.1883e-05 -8.76068e-06 -1.47878e-05
1.47826e-05 -7.474e-06 -1.5404e-05
-1.39605e-05 -5.24417e-06 -1.48624e-05
2.79597e-06 -1.45169e-05 -1.47969e-05
4.24581e-07 -1.65003e-05 -1.53985e-05
3.51861e-06 4.39716e-06 -9.58161e-06
1.40113e-05 9.29955e-06 -1.54923e-05
1.79317e-05 8.1454e-06 -1.63013e-05
-1.56763e-05 1.13959e-05 -1.62342e-05
-1.09415e-06 1.677e-05 -1.5496e-05
1.90695e-06 1.96227e-05 -1.63117e-05
-2.09197e-06 5.22034e-06 -9.59811e-06
5.55422e-06 -7.84642e-07 -9.59465e-06
3.58613e-06 -3.68374e-06 -9.08246e-06
-1.77973e-06 -5.17883e-06 -9.45011e-06
-2.24699e-05 -1.10114e-05 -1.7475e-05
-1.87991e-05 -9.24191e-06 -1.66518e-05
2.11489e-05 1.41655e-05 -1.75063e-05
2.07548e-05 -1.43183e-05 -1.74362e-05
-1.76466e-06 -2.54478e-05 -1.75116e-05
-1.68219e-06 2.54118e-05 -1.75163e-05
1.77139e-05 -1.19075e-05 -1.66879e-05
2.06468e-05 -1.07516e-05 -1.71167e-05
3.77583e-06 -1.89862e-05 -1.61401e-05
7.68562e-07 -2.03469e-05 -1.64836e-05
-1.94061e-05 -1.26512e-05 -1.71438e-05
-1.37318e-05 -2.30705e-06 -1.44726e-05
-1.65936e-05 -3.70163e-06 -1.54783e-05
-1.03764e-05 -1.09644e-06 -1.29527e-05
2.44532e-05 1.10734e-05 -1.76523e-05
2.54987e-05 -1.24039e-05 -1.78488e-05
2.64931e-06 2.67273e-05 -1.76611e-05
2.52106e-06 -2.64149e-05 -1.763e-05
3.3396e-06 -2.30331e-05 -1.70298e-05
-2.054e-06 -1.83209e-05 -1.59516e-05
4.05922e-06 2.37926e-05 -1.71311e-05
2.26153e-05 8.37972e-06 -1.712e-05
4.61384e-06 1.73143e-05 -1.5728e-05
1.44278e-05 -1.31201e-05 -1.61381e-05
-1.57885e-05 -1.09853e-05 -1.62153e-05
-1.68007e-05 -3.81449e-07 -1.53781e-05
1.73068e-05 4.68773e-06 -1.57264e-05
6.55243e-08 -6.38762e-06 -1.0268e-05
1.74179e-06 -4.84869e-06 -9.09296e-06
5.85074e-06 -2.93565e-06 -1.03787e-05
-2.14453e-05 3.75073e-06 -1.64596e-05
5.72965e-06 -1.62753e-05 -1.55085e-05
9.08393e-06 -1.74999e-05 -1.59982e-05
1.7573e-05 1.18823e-05 -1.6673e-05
1.3995e-05 -1.63831e-05 -1.6402e-05
1.07405e-05 -1.37897e-05 -1.55508e-05
-3.54814e-06 -4.22039e-06 -9.50126e-06
5.39937e-06 1.13855e-06 -9.49954e-06
5.2183e-06 3.22303e-06 -1.00478e-05
-1.74982e-06 -2.83558e-05 -1.78775e-05
1.89215e-06 5.29914e-06 -9.58495e-06
-1.1383e-07 6.10529e-06 -1.00393e-05
-3.7851e-06 4.12793e-06 -9.5789e-06
-5.62294e-06 3.03433e-06 -1.02858e-05
-5.16571e-06 1.04072e-06 -9.21409e-06
-7.52761e-06 -6.17423e-08 -1.1173e-05
-4.33456e-06 -8.10313e-07 -8.38229e-06
-3.10872e-06 1.87242e-06 -7.37444e-06
-2.20823e-05 -3.60797e-06 -1.65165e-05
2.34073e-05 -1.56886e-05 -1.78367e-05
-1.50726e-06 2.11689e-05 -1.66827e-05
2.12627e-05 -8.45246e-08 -1.62265e-05
1.7623e-05 -1.64689e-06 -1.55822e-05
1.73486e-05 -4.94193e-06 -1.57714e-05
2.18926e-05 -7.45151e-06 -1.69143e-05
-2.31832e-05 -1.42552e-05 -1.78333e-05
1.73255e-05 1.64896e-06 -1.55093e-05
-1.73403e-06 2.84743e-05 -1.78947e-05