# vtk DataFile Version 3.0
vtk output at time 310
ASCII
DATASET UNSTRUCTURED_GRID
POINTS 626 float
-3.68058e-05 0.000978749 0 3.68058e-05 0.000978749 0 -0.000829194 0.00052125 0 
-0.0008235 0.0005 0 -0.000866 0.0004575 0 -0.000866 -0.0004575 0 
-0.0008235 -0.0005 0 -0.000829194 -0.00052125 0 -3.68058e-05 -0.000978749 0 
3.68058e-05 -0.000978749 0 0.000829194 -0.00052125 0 0.000866 -0.0004575 0 
0.000866 0.0004575 0 0.000829194 0.00052125 0 8.5e-05 0 0 
-3.68058e-05 0.000978749 -0.001 3.68058e-05 0.000978749 -0.001 -0.000829194 0.00052125 -0.001 
-0.0008235 0.0005 -0.001 -0.000866 0.0004575 -0.001 -0.000866 -0.0004575 -0.001 
-0.0008235 -0.0005 -0.001 -0.000829194 -0.00052125 -0.001 -3.68058e-05 -0.000978749 -0.001 
3.68058e-05 -0.000978749 -0.001 0.000829194 -0.00052125 -0.001 0.000866 -0.0004575 -0.001 
0.000866 0.0004575 -0.001 0.000829194 0.00052125 -0.001 8.5e-05 0 -0.001 
8.46223e-17 0.0009575 0 -0.000715996 0.000586607 0 -0.000602797 0.000651965 0 
-0.000489599 0.000717321 0 -0.000376401 0.000782678 0 -0.000263202 0.000848036 0 
-0.000150004 0.000913393 0 -0.000835948 0.000469948 0 -0.000866 -0.000326786 0 
-0.000866 -0.000196071 0 -0.000866 -6.53571e-05 0 -0.000866 6.53571e-05 0 
-0.000866 0.000196071 0 -0.000866 0.000326786 0 -0.000835948 -0.000469948 0 
-0.000150004 -0.000913393 0 -0.000263202 -0.000848036 0 -0.000376401 -0.000782678 0 
-0.000489599 -0.000717321 0 -0.000602797 -0.000651965 0 -0.000715996 -0.000586607 0 
8.47648e-17 -0.0009575 0 0.000715996 -0.000586607 0 0.000602797 -0.000651965 0 
0.000489599 -0.000717321 0 0.000376401 -0.000782678 0 0.000263202 -0.000848036 0 
0.000150004 -0.000913393 0 0.000829194 -0.00047875 0 0.000866 0.000326786 0 
0.000866 0.000196071 0 0.000866 6.53571e-05 0 0.000866 -6.53571e-05 0 
0.000866 -0.000196071 0 0.000866 -0.000326786 0 0.000829194 0.00047875 0 
0.000150004 0.000913393 0 0.000263202 0.000848036 0 0.000376401 0.000782678 0 
0.000489599 0.000717321 0 0.000602797 0.000651965 0 0.000715996 0.000586607 0 
5.29966e-05 6.64557e-05 0 -1.89143e-05 8.28689e-05 0 -7.65824e-05 3.68801e-05 0 
-7.65824e-05 -3.68801e-05 0 -1.89143e-05 -8.28689e-05 0 5.29966e-05 -6.64557e-05 0 
8.46223e-17 0.0009575 -0.001 -0.000715996 0.000586607 -0.001 -0.000602797 0.000651965 -0.001 
-0.000489599 0.000717321 -0.001 -0.000376401 0.000782678 -0.001 -0.000263202 0.000848036 -0.001 
-0.000150004 0.000913393 -0.001 -0.000835948 0.000469948 -0.001 -0.000866 -0.000326786 -0.001 
-0.000866 -0.000196071 -0.001 -0.000866 -6.53571e-05 -0.001 -0.000866 6.53571e-05 -0.001 
-0.000866 0.000196071 -0.001 -0.000866 0.000326786 -0.001 -0.000835948 -0.000469948 -0.001 
-0.000150004 -0.000913393 -0.001 -0.000263202 -0.000848036 -0.001 -0.000376401 -0.000782678 -0.001 
-0.000489599 -0.000717321 -0.001 -0.000602797 -0.000651965 -0.001 -0.000715996 -0.000586607 -0.001 
8.47648e-17 -0.0009575 -0.001 0.000715996 -0.000586607 -0.001 0.000602797 -0.000651965 -0.001 
0.000489599 -0.000717321 -0.001 0.000376401 -0.000782678 -0.001 0.000263202 -0.000848036 -0.001 
0.000150004 -0.000913393 -0.001 0.000829194 -0.00047875 -0.001 0.000866 0.000326786 -0.001 
0.000866 0.000196071 -0.001 0.000866 6.53571e-05 -0.001 0.000866 -6.53571e-05 -0.001 
0.000866 -0.000196071 -0.001 0.000866 -0.000326786 -0.001 0.000829194 0.00047875 -0.001 
0.000150004 0.000913393 -0.001 0.000263202 0.000848036 -0.001 0.000376401 0.000782678 -0.001 
0.000489599 0.000717321 -0.001 0.000602797 0.000651965 -0.001 0.000715996 0.000586607 -0.001 
5.29966e-05 6.64557e-05 -0.001 -1.89143e-05 8.28689e-05 -0.001 -7.65824e-05 3.68801e-05 -0.001 
-7.65824e-05 -3.68801e-05 -0.001 -1.89143e-05 -8.28689e-05 -0.001 5.29966e-05 -6.64557e-05 -0.001 
0.000131234 6.38474e-05 0 0.00012964 -6.2443e-05 0 3.13827e-05 0.0001394 0 
3.12554e-05 -0.000136939 0 -0.000140461 8.25467e-19 0 -8.90565e-05 -0.000102707 0 
-9.04142e-05 0.000102872 0 -0.000765769 -0.00025965 0 -0.000756873 0.000262774 0 
-0.00015609 0.000787505 0 -0.000155807 -0.00079355 0 0.000605069 0.000528035 0 
0.000608694 -0.00052497 0 0.000744069 0.000116929 0 -0.000494418 0.000596218 0 
-0.000483866 -0.000584648 0 0.000269496 0.000702219 0 0.000263201 -0.000717324 0 
0.000754429 -0.000127825 0 -0.000748858 5.84659e-07 0 -0.000747838 0.000373886 0 
-0.0006542 0.000324842 0 -0.000645137 0.000210123 0 -0.000550884 0.000274171 0 
-0.000538857 0.000163195 0 -0.00045062 0.000224461 0 -0.000438393 0.000123907 0 
-0.000354088 0.000181668 0 -0.000363908 0.000282171 0 -0.000270361 0.000239477 0 
-0.000279138 0.000337653 0 -0.000188888 0.000294791 0 -0.000196448 0.000393271 0 
-0.000104767 0.000348259 0 -0.000113332 0.000449012 0 -2.01066e-05 0.000403223 0 
-2.89189e-05 0.000507105 0 6.9524e-05 0.000461596 0 -0.000213644 0.000490203 0 
7.33757e-05 0.000357726 0 0.000163331 0.00041299 0 0.000163359 0.000313022 0 
0.000248077 0.000366368 0 0.000250914 0.000265758 0 0.000335709 0.000322266 0 
0.000340555 0.000218148 0 0.000427299 0.000276717 0 0.000431508 0.000173093 0 
0.000328731 0.000425633 0 0.00034586 0.000114823 0 0.000435362 7.05241e-05 0 
0.000350892 1.5455e-05 0 0.000441547 -3.11896e-05 0 0.000353547 -8.47783e-05 0 
0.000445767 -0.000132964 0 0.000356135 -0.000186358 0 0.000449094 -0.000234674 0 
0.000359978 -0.000287876 0 0.00026856 -0.000240545 0 0.000271895 -0.000341045 0 
0.000181792 -0.00029305 0 0.00018533 -0.000392851 0 9.75701e-05 -0.00034483 0 
9.98764e-05 -0.000444884 0 8.75116e-06 -0.000396343 0 1.20916e-05 -0.000500496 0 
-7.83929e-05 -0.000449843 0 -8.1471e-05 -0.000347249 0 -0.000171566 -0.000403733 0 
-0.000169889 -0.000298891 0 -0.000259867 -0.000354132 0 -0.000257696 -0.000249137 0 
-0.00034313 -0.000299896 0 -0.000344514 -0.000199127 0 -0.000434309 -0.000250039 0 
-0.000169832 -0.000505815 0 -0.000435227 -0.000146227 0 0.000280331 -0.000442424 0 
-0.000340889 8.76793e-05 0 -0.000515252 4.06198e-05 0 6.50491e-05 0.000568253 0 
0.00053278 1.74743e-05 0 0.000522071 0.000229831 0 -0.00037162 0.000391659 0 
-0.000255272 -0.000150439 0 -0.000442893 -0.000350705 0 0.000450067 -0.000332559 0 
0.000545175 -0.000276306 0 -0.000527797 -0.000197598 0 0.000105306 -0.000551033 0 
1.45836e-05 -0.000609147 0 0.00017145 0.000214453 0 0.000515525 0.000341711 0 
0.000636086 0.000290368 0 -0.000558657 0.000404468 0 -4.01232e-05 0.000616718 0 
6.60192e-05 0.000696422 0 -0.000101806 0.0002546 0 0.000271142 -3.88908e-05 0 
0.000179455 -0.00018534 0 -8.79553e-05 -0.000254307 0 -0.000749267 -0.000373451 0 
-0.000655941 -0.000323397 0 0.000709746 0.000466718 0 0.000698426 -0.000473086 0 
-5.25801e-05 -0.00084886 0 -4.93005e-05 0.000848038 0 0.000617396 -0.000413362 0 
0.000702056 -0.000369817 0 0.000131459 -0.000679171 0 2.48171e-05 -0.000715924 0 
-0.000664217 -0.00042729 0 -0.000528828 -8.80444e-05 0 -0.000611101 -0.000136672 0 
-0.000426972 -4.45841e-05 0 0.000800669 0.000378216 0 0.000821144 -0.000415062 0 
7.2799e-05 0.00088254 0 6.81831e-05 -0.00087503 0 0.000104963 -0.000788946 0 
-7.40696e-05 -0.000660054 0 0.000126061 0.000809943 0 0.000764361 0.000295682 0 
0.000166862 0.000630623 0 0.000516462 -0.00046707 0 -0.000563585 -0.000389606 0 
-0.000622598 -1.40238e-05 0 0.000629891 0.000171529 0 2.5614e-06 -0.000299794 0 
8.6901e-05 -0.00024329 0 0.000272045 -0.000136982 0 -0.00075148 0.000138321 0 
0.000209366 -0.000599589 0 0.000324913 -0.000630055 0 0.000614044 0.00041245 0 
0.00049651 -0.000573327 0 0.000394822 -0.000507321 0 -0.000173714 -0.000206698 0 
0.000264897 5.63722e-05 0 0.000247997 0.000152811 0 -4.63327e-05 -0.000920208 0 
9.18688e-05 0.000258626 0 -5.54111e-06 0.000290558 0 -0.000184219 0.000201484 0 
-0.000263559 0.000142267 0 -0.000256427 5.13624e-05 0 -0.000336894 -2.06179e-06 0 
-0.000228499 -4.2388e-05 0 -0.00017589 0.000106626 0 -0.000769947 -0.000133367 0 
0.000767591 -0.000500293 0 -5.05874e-05 0.000737978 0 0.000754456 -3.51771e-06 0 
0.00064691 -6.15298e-05 0 0.000630483 -0.00018134 0 0.000749187 -0.000265543 0 
-0.000760805 -0.000462521 0 0.000638155 6.09315e-05 0 -4.46661e-05 0.000922995 0 
-2.37945e-05 0.000207237 0 0.000776979 0.000500181 0 -0.000605691 0.000527596 0 
-0.000377914 -0.000653727 0 -0.000372325 -0.000526022 0 -0.000275829 -0.000589621 0 
-0.000254285 -0.000710579 0 -0.000379307 0.000656222 0 -0.000379818 0.00052718 0 
-0.000266817 0.000721555 0 -0.000150544 0.000668174 0 0.000381963 0.00065079 0 
0.000493113 0.000590432 0 0.000505439 0.000463708 0 -0.000269094 0.000596608 0 
0.000385815 0.000532045 0 0.000283599 0.0005899 0 -0.000176405 -0.000108505 0 
-0.000278769 -0.000475415 0 0.000185395 2.33014e-06 0 0.000186773 0.000517571 0 
0.000540032 -8.68444e-05 0 -0.000600694 -0.000514877 0 -0.00063703 8.98033e-05 0 
-0.000459677 0.000335729 0 -0.000338836 -0.000100751 0 -0.000457327 0.000432721 0 
-8.72007e-06 -0.000210238 0 0.000156073 0.000129496 0 -7.70692e-05 -0.000555049 0 
0.00036091 -0.000389728 0 0.000531628 0.000120564 0 -0.000285451 0.000435562 0 
0.000192719 -0.000494604 0 0.00041642 0.00039368 0 -0.000135943 0.000554637 0 
-0.000170665 -0.000610079 0 -0.000666304 0.000434981 0 -0.000758736 0.000479231 0 
-0.000470189 -0.000458901 0 0.000203433 -8.59809e-05 0 0.000101846 0.000170114 0 
-0.00035513 -0.00040726 0 0.000100184 -0.000165831 0 2.96286e-05 0.00081537 0 
0.000720946 0.000381836 0 -0.000539809 -0.000292001 0 0.00052211 -0.000182426 0 
-6.41339e-05 -0.000753908 0 0.000638039 -0.000299861 0 -0.000605136 -0.000230182 0 
-3.41638e-05 -0.000145561 0 -0.000104037 0.000172396 0 -0.000808575 -0.00042774 0 
-0.000807207 -0.000465052 0 -0.00080817 0.000429771 0 -0.000806589 0.000469738 0 
-9.50634e-05 -0.000178909 0 0.000247777 0.000445058 0 1.48293e-05 -0.000814201 0 
-4.11555e-05 0.000140955 0 0.000276104 -0.000536845 0 0.000765969 -0.000436638 0 
0.000780871 -0.000362769 0 0.000424176 -0.000642018 0 0.00053413 -0.000368009 0 
-0.000416333 4.17911e-05 0 -0.000133891 -6.23822e-05 0 4.2574e-05 0.000206312 0 
[...]
POINT_DATA 626
VECTORS displacement float
-1.74395e-06 3.09542e-05 1.80549e-05
1.73566e-06 3.09732e-05 1.81e-05
-2.59861e-05 1.69927e-05 1.80869e-05
-2.58407e-05 1.60329e-05 1.80515e-05
-2.77205e-05 1.39727e-05 1.80689e-05
-2.77134e-05 -1.4019e-05 1.80944e-05
-2.58119e-05 -1.60711e-05 1.81057e-05
-2.59823e-05 -1.70108e-05 1.81669e-05
-1.67741e-06 -3.09579e-05 1.80513e-05
1.75545e-06 -3.09594e-05 1.81018e-05
2.59434e-05 -1.69806e-05 1.80434e-05
2.77168e-05 -1.39366e-05 1.80432e-05
2.76723e-05 1.39893e-05 1.80915e-05
2.59148e-05 1.69929e-05 1.80459e-05
0 0 0
-1.74395e-06 3.09542e-05 -1.80549e-05
1.73566e-06 3.09732e-05 -1.81e-05
-2.59861e-05 1.69927e-05 -1.80869e-05
-2.58407e-05 1.60329e-05 -1.80515e-05
-2.77205e-05 1.39727e-05 -1.80689e-05
-2.77134e-05 -1.4019e-05 -1.80944e-05
-2.58119e-05 -1.60711e-05 -1.81057e-05
-2.59823e-05 -1.70108e-05 -1.81669e-05
-1.67741e-06 -3.09579e-05 -1.80513e-05
1.75545e-06 -3.09594e-05 -1.81018e-05
2.59434e-05 -1.69806e-05 -1.80434e-05
2.77168e-05 -1.39366e-05 -1.80432e-05
2.76723e-05 1.39893e-05 -1.80915e-05
2.59148e-05 1.69929e-05 -1.80459e-05
0 0 0
2.48953e-08 3.01541e-05 1.80341e-05
-2.11404e-05 1.87123e-05 1.75496e-05
-1.72323e-05 1.98336e-05 1.69207e-05
-1.40068e-05 2.1054e-05 1.65548e-05
-1.12068e-05 2.26646e-05 1.65486e-05
-8.52402e-06 2.48326e-05 1.69012e-05
-5.56777e-06 2.76215e-05 1.75373e-05
-2.64496e-05 1.4679e-05 1.80334e-05
-2.67685e-05 -9.01142e-06 1.75773e-05
-2.5806e-05 -5.0354e-06 1.69258e-05
-2.52542e-05 -1.63618e-06 1.65712e-05
-2.52572e-05 1.60782e-06 1.65742e-05
-2.57982e-05 5.0228e-06 1.6924e-05
-2.67547e-05 8.98451e-06 1.75638e-05
-2.64365e-05 -1.47254e-05 1.80621e-05
-5.54103e-06 -2.76359e-05 1.75295e-05
-8.47653e-06 -2.48416e-05 1.69005e-05
-1.117e-05 -2.2684e-05 1.6556e-05
-1.39704e-05 -2.1087e-05 1.65594e-05
-1.72148e-05 -1.9869e-05 1.69365e-05
-2.1134e-05 -1.8749e-05 1.75621e-05
8.98412e-08 -3.01389e-05 1.80292e-05
2.11238e-05 -1.86247e-05 1.75113e-05
1.72445e-05 -1.9762e-05 1.68727e-05
1.40337e-05 -2.1011e-05 1.65114e-05
1.1225e-05 -2.25927e-05 1.6546e-05
8.58118e-06 -2.47798e-05 1.6874e-05
5.65465e-06 -2.76262e-05 1.75348e-05
2.61243e-05 -1.50596e-05 1.80282e-05
2.67166e-05 8.93829e-06 1.75014e-05
2.57218e-05 5.04952e-06 1.69082e-05
2.52063e-05 1.6233e-06 1.6523e-05
2.52034e-05 -1.59941e-06 1.65213e-05
2.57504e-05 -4.99731e-06 1.68882e-05
2.66986e-05 -8.91705e-06 1.75095e-05
2.61074e-05 1.50607e-05 1.80253e-05
5.63311e-06 2.76175e-05 1.75094e-05
8.50855e-06 2.48065e-05 1.6911e-05
1.1217e-05 2.26408e-05 1.65292e-05
1.40043e-05 2.10219e-05 1.65246e-05
1.72215e-05 1.97933e-05 1.68849e-05
2.11148e-05 1.86343e-05 1.75252e-05
0 0 0
0 0 0
0 0 0
0 0 0
0 0 0
0 0 0
2.48953e-08 3.01541e-05 -1.80341e-05
-2.11404e-05 1.87123e-05 -1.75496e-05
-1.72323e-05 1.98336e-05 -1.69207e-05
-1.40068e-05 2.1054e-05 -1.65548e-05
-1.12068e-05 2.26646e-05 -1.65486e-05
-8.52402e-06 2.48326e-05 -1.69012e-05
-5.56777e-06 2.76215e-05 -1.75373e-05
-2.64496e-05 1.4679e-05 -1.80334e-05
-2.67685e-05 -9.01142e-06 -1.75773e-05
-2.5806e-05 -5.0354e-06 -1.69258e-05
-2.52542e-05 -1.63618e-06 -1.65712e-05
-2.52572e-05 1.60782e-06 -1.65742e-05
-2.57982e-05 5.0228e-06 -1.6924e-05
-2.67547e-05 8.98451e-06 -1.75638e-05
-2.64365e-05 -1.47254e-05 -1.80621e-05
-5.54103e-06 -2.76359e-05 -1.75295e-05
-8.47653e-06 -2.48416e-05 -1.69005e-05
-1.117e-05 -2.2684e-05 -1.6556e-05
-1.39704e-05 -2.1087e-05 -1.65594e-05
-1.72148e-05 -1.9869e-05 -1.69365e-05
-2.1134e-05 -1.8749e-05 -1.75621e-05
8.98412e-08 -3.01389e-05 -1.80292e-05
2.11238e-05 -1.86247e-05 -1.75113e-05
1.72445e-05 -1.9762e-05 -1.68727e-05
1.40337e-05 -2.1011e-05 -1.65114e-05
1.1225e-05 -2.25927e-05 -1.6546e-05
8.58118e-06 -2.47798e-05 -1.6874e-05
5.65465e-06 -2.76262e-05 -1.75348e-05
2.61243e-05 -1.50596e-05 -1.80282e-05
2.67166e-05 8.93829e-06 -1.75014e-05
2.57218e-05 5.04952e-06 -1.69082e-05
2.52063e-05 1.6233e-06 -1.6523e-05
2.52034e-05 -1.59941e-06 -1.65213e-05
2.57504e-05 -4.99731e-06 -1.68882e-05
2.66986e-05 -8.91705e-06 -1.75095e-05
2.61074e-05 1.50607e-05 -1.80253e-05
5.63311e-06 2.76175e-05 -1.75094e-05
8.50855e-06 2.48065e-05 -1.6911e-05
1.1217e-05 2.26408e-05 -1.65292e-05
1.40043e-05 2.10219e-05 -1.65246e-05
1.72215e-05 1.97933e-05 -1.68849e-05
2.11148e-05 1.86343e-05 -1.75252e-05
0 0 0
0 0 0
0 0 0
0 0 0
0 0 0
0 0 0
1.79366e-06 8.58738e-07 4.5522e-06
1.7378e-06 -8.25107e-07 4.46075e-06
4.3195e-07 1.84961e-06 4.49506e-06
4.36094e-07 -1.78061e-06 4.35604e-06
-1.84747e-06 2.09629e-08 4.42231e-06
-1.12308e-06 -1.30886e-06 4.15095e-06
-1.1592e-06 1.30679e-06 4.19973e-06
-2.25128e-05 -7.28758e-06 1.69998e-05
-2.21962e-05 7.37147e-06 1.69684e-05
-4.8604e-06 2.28982e-05 1.69368e-05
-4.85791e-06 -2.31314e-05 1.69637e-05
1.7421e-05 1.56353e-05 1.69297e-05
1.75686e-05 -1.55363e-05 1.69389e-05
2.10733e-05 3.16384e-06 1.63242e-05
-1.39529e-05 1.71511e-05 1.64782e-05
-1.3591e-05 -1.67411e-05 1.64097e-05
7.76776e-06 1.98193e-05 1.6331e-05
7.68478e-06 -2.03097e-05 1.64023e-05
2.1472e-05 -3.44368e-06 1.64e-05
-2.11025e-05 6.58808e-09 1.62464e-05
-2.24201e-05 1.09996e-05 1.74534e-05
-1.87507e-05 9.25459e-06 1.66269e-05
-1.79825e-05 5.79538e-06 1.60361e-05
-1.49838e-05 7.44824e-06 1.54861e-05
-1.42243e-05 4.30766e-06 1.48294e-05
-1.15325e-05 5.74381e-06 1.40945e-05
-1.08579e-05 3.0687e-06 1.33733e-05
-8.40038e-06 4.30482e-06 1.24041e-05
-9.05869e-06 7.01332e-06 1.34561e-05
-6.20403e-06 5.48844e-06 1.16887e-05
-6.82822e-06 8.24934e-06 1.30797e-05
-4.28134e-06 6.67483e-06 1.14502e-05
-4.79995e-06 9.6098e-06 1.30936e-05
-2.40084e-06 7.99325e-06 1.17227e-05
-2.81281e-06 1.11671e-05 1.34746e-05
-4.75404e-07 9.59517e-06 1.25007e-05
-7.38344e-07 1.29967e-05 1.41414e-05
1.73106e-06 1.15176e-05 1.35347e-05
-5.53462e-06 1.27002e-05 1.44366e-05
1.68506e-06 8.22388e-06 1.17473e-05
4.00413e-06 1.01208e-05 1.31507e-05
3.70531e-06 7.09786e-06 1.1478e-05
6.06733e-06 8.96656e-06 1.31131e-05
5.76675e-06 6.10672e-06 1.17353e-05
8.35798e-06 8.02022e-06 1.34917e-05
8.10555e-06 5.1952e-06 1.25001e-05
1.09539e-05 7.09696e-06 1.41467e-05
1.07458e-05 4.32274e-06 1.34988e-05
8.53042e-06 1.10373e-05 1.44605e-05
7.9376e-06 2.64371e-06 1.17271e-05
1.06459e-05 1.73718e-06 1.31037e-05
7.94859e-06 3.58756e-07 1.14553e-05
1.08063e-05 -7.59103e-07 1.31238e-05
8.11155e-06 -1.93778e-06 1.17088e-05
1.10981e-05 -3.31281e-06 1.34836e-05
8.46963e-06 -4.42393e-06 1.24438e-05
1.15036e-05 -6.00281e-06 1.41091e-05
8.95546e-06 -7.13802e-06 1.34278e-05
6.14745e-06 -5.49435e-06 1.1641e-05
6.64442e-06 -8.30076e-06 1.3018e-05
4.10516e-06 -6.58843e-06 1.13107e-05
4.5233e-06 -9.55075e-06 1.2988e-05
2.24227e-06 -7.85819e-06 1.15971e-05
2.48481e-06 -1.10018e-05 1.33507e-05
2.25289e-07 -9.37358e-06 1.23533e-05
3.3001e-07 -1.27697e-05 1.40336e-05
-1.91541e-06 -1.11506e-05 1.33767e-05
-1.84105e-06 -7.92153e-06 1.15819e-05
-4.16785e-06 -9.87474e-06 1.30848e-05
-3.8139e-06 -6.73042e-06 1.13169e-05
-6.34555e-06 -8.66192e-06 1.3099e-05
-5.89123e-06 -5.69795e-06 1.16282e-05
-8.49962e-06 -7.43571e-06 1.33794e-05
-8.16745e-06 -4.728e-06 1.24084e-05
-1.10955e-05 -6.4027e-06 1.40696e-05
-4.3716e-06 -1.3123e-05 1.44334e-05
-1.08087e-05 -3.65064e-06 1.3439e-05
7.22604e-06 -1.13726e-05 1.42727e-05
-7.74162e-06 1.98266e-06 1.14927e-05
-1.3216e-05 1.03505e-06 1.42107e-05
1.7291e-06 1.50826e-05 1.4952e-05
1.37679e-05 4.62232e-07 1.43875e-05
1.3843e-05 6.10004e-06 1.49315e-05
-9.69395e-06 1.01962e-05 1.45323e-05
-5.41596e-06 -3.19762e-06 1.0182e-05
-1.17135e-05 -9.29724e-06 1.4889e-05
1.18823e-05 -8.76012e-06 1.47869e-05
1.47816e-05 -7.47353e-06 1.54031e-05
-1.39596e-05 -5.24384e-06 1.48615e-05
2.79579e-06 -1.4516e-05 1.4796e-05
4.24559e-07 -1.64992e-05 1.53976e-05
3.5184e-06 4.3969e-06 9.58098e-06
1.40104e-05 9.29896e-06 1.54914e-05
1.79306e-05 8.14488e-06 1.63004e-05
-1.56753e-05 1.13952e-05 1.62333e-05
-1.09408e-06 1.67689e-05 1.54951e-05
1.90685e-06 1.96214e-05 1.63108e-05
-2.09185e-06 5.22003e-06 9.59748e-06
5.55389e-06 -7.84597e-07 9.59402e-06
3.58592e-06 -3.68353e-06 9.08187e-06
-1.77962e-06 -5.17853e-06 9.44949e-06
-2.24686e-05 -1.10107e-05 1.74742e-05
-1.8798e-05 -9.24133e-06 1.66509e-05
2.11477e-05 1.41647e-05 1.75055e-05
2.07536e-05 -1.43175e-05 1.74354e-05
-1.7646e-06 -2.54463e-05 1.75108e-05
-1.68213e-06 2.54103e-05 1.75155e-05
1.77128e-05 -1.19068e-05 1.6687e-05
2.06455e-05 -1.0751e-05 1.71158e-05
3.77561e-06 -1.89849e-05 1.61392e-05
7.68526e-07 -2.03456e-05 1.64827e-05
-1.94049e-05 -1.26504e-05 1.7143e-05
-1.3731e-05 -2.3069e-06 1.44717e-05
-1.65925e-05 -3.70139e-06 1.54774e-05
-1.03757e-05 -1.09637e-06 1.29519e-05
2.44519e-05 1.10727e-05 1.76515e-05
2.54974e-05 -1.24031e-05 1.7848e-05
2.64924e-06 2.67257e-05 1.76604e-05
2.52099e-06 -2.64134e-05 1.76292e-05
3.33944e-06 -2.30317e-05 1.70289e-05
-2.05387e-06 -1.83197e-05 1.59507e-05
4.05904e-06 2.37911e-05 1.71302e-05
2.26139e-05 8.37916e-06 1.71191e-05
4.61356e-06 1.73131e-05 1.57271e-05
1.44268e-05 -1.31193e-05 1.61372e-05
-1.57875e-05 -1.09846e-05 1.62144e-05
-1.67996e-05 -3.81423e-07 1.53771e-05
1.73057e-05 4.68742e-06 1.57255e-05
6.55214e-08 -6.38724e-06 1.02673e-05
1.74169e-06 -4.84841e-06 9.09237e-06
5.8504e-06 -2.93548e-06 1.0378e-05
-2.14439e-05 3.75046e-06 1.64586e-05
5.7293e-06 -1.62743e-05 1.55075e-05
9.08335e-06 -1.74988e-05 1.59973e-05
1.7572e-05 1.18815e-05 1.66721e-05
1.3994e-05 -1.6382e-05 1.6401e-05
1.07398e-05 -1.37888e-05 1.55499e-05
-3.54793e-06 -4.22015e-06 9.50064e-06
5.39906e-06 1.13848e-06 9.49892e-06
5.21799e-06 3.22284e-06 1.00471e-05
-1.74978e-06 -2.83542e-05 1.78767e-05
1.89204e-06 5.29883e-06 9.58432e-06
-1.13822e-07 6.10493e-06 1.00386e-05
-3.78488e-06 4.12769e-06 9.57827e-06
-5.62261e-06 3.03415e-06 1.02851e-05
-5.16541e-06 1.04066e-06 9.21348e-06
-7.52715e-06 -6.17384e-08 1.11722e-05
-4.33432e-06 -8.10269e-07 8.38174e-06
-3.10855e-06 1.87232e-06 7.37397e-06
-2.20809e-05 -3.6077e-06 1.65156e-05
2.34059e-05 -1.56878e-05 1.7836e-05
-1.50718e-06 2.11676e-05 1.66819e-05
2.12614e-05 -8.45183e-08 1.62255e-05
1.76218e-05 -1.64678e-06 1.55812e-05
1.73475e-05 -4.9416e-06 1.57705e-05
2.18913e-05 -7.45101e-06 1.69134e-05
-2.31819e-05 -1.42544e-05 1.78325e-05
1.73244e-05 1.64885e-06 1.55083e-05
-1.73399e-06 2.84728e-05 1.7894e-05
-4.22067e-07 3.68338e-06 7.4952e-06
2.37717e-05 1.57422e-05 1.78844e-05
-1.74971e-05 1.56421e-05 1.69748e-05
-1.06261e-05 -1.84659e-05 1.62549e-05
-1.00994e-05 -1.43421e-05 1.55715e-05
-7.50767e-06 -1.60946e-05 1.56218e-05
-7.32204e-06 -2.01202e-05 1.63951e-05
-1.07043e-05 1.8535e-05 1.62666e-05
-1.03472e-05 1.43839e-05 1.56191e-05
-7.77255e-06 2.04921e-05 1.6444e-05
-4.25294e-06 1.86094e-05 1.60528e-05
1.07596e-05 1.83452e-05 1.6226e-05
1.38915e-05 1.69347e-05 1.64308e-05
1.40418e-05 1.29727e-05 1.60511e-05
-7.36148e-06 1.62881e-05 1.56383e-05
1.0525e-05 1.45468e-05 1.5645e-05
7.74865e-06 1.60921e-05 1.56137e-05
-3.11643e-06 -1.89875e-06 7.39309e-06
-7.25755e-06 -1.24218e-05 1.4625e-05
3.00863e-06 4.03598e-08 6.6009e-06
4.87252e-06 1.35226e-05 1.46179e-05
1.40758e-05 -2.26036e-06 1.45703e-05
-1.72895e-05 -1.52165e-05 1.69453e-05
-1.73663e-05 2.42027e-06 1.55976e-05
-1.22045e-05 8.91183e-06 1.49433e-05
-7.70554e-06 -2.29249e-06 1.15545e-05
-1.24496e-05 1.18125e-05 1.55398e-05
-1.42734e-07 -3.75419e-06 7.55409e-06
2.7302e-06 2.27206e-06 7.25184e-06
-2.00384e-06 -1.46503e-05 1.48079e-05
9.36498e-06 -1.00681e-05 1.43892e-05
1.38606e-05 3.15778e-06 1.45659e-05
-7.33995e-06 1.11992e-05 1.42601e-05
4.99716e-06 -1.27746e-05 1.43691e-05
1.10317e-05 1.04304e-05 1.49195e-05
-3.5964e-06 1.46851e-05 1.49079e-05
-4.63542e-06 -1.66167e-05 1.55487e-05
-1.95069e-05 1.28923e-05 1.71612e-05
-2.31267e-05 1.4858e-05 1.78433e-05
-1.29048e-05 -1.2686e-05 1.58124e-05
3.76077e-06 -1.58611e-06 7.90686e-06
1.76438e-06 2.92226e-06 7.08436e-06
-9.23038e-06 -1.06094e-05 1.45316e-05
1.72773e-06 -2.82313e-06 6.93099e-06
9.94726e-07 2.41166e-05 1.73084e-05
2.13678e-05 1.11937e-05 1.72985e-05
-1.46645e-05 -7.95331e-06 1.54852e-05
1.37079e-05 -4.78627e-06 1.46905e-05
-1.90987e-06 -2.17627e-05 1.68026e-05
1.80602e-05 -8.41898e-06 1.63406e-05
-1.66788e-05 -6.3285e-06 1.57823e-05
-4.32897e-07 -1.92231e-06 4.79843e-06
-1.80535e-06 2.99542e-06 7.1771e-06
-2.50518e-05 -1.29817e-05 1.79222e-05
-2.5127e-05 -1.45072e-05 1.8002e-05
-2.5045e-05 1.30336e-05 1.79059e-05
-2.51179e-05 1.46499e-05 1.79821e-05
-1.64844e-06 -3.12482e-06 7.20984e-06
6.32789e-06 1.13683e-05 1.40764e-05
5.33709e-07 -2.40859e-05 1.73021e-05
-5.22774e-07 1.80953e-06 4.64497e-06
7.40739e-06 -1.43435e-05 1.51522e-05
2.33027e-05 -1.32092e-05 1.77287e-05
2.36325e-05 -1.05375e-05 1.74907e-05
1.19883e-05 -1.82108e-05 1.62931e-05
1.473e-05 -1.01466e-05 1.57955e-05
-1.0027e-05 1.00124e-06 1.27545e-05
-1.74e-06 -8.15897e-07 4.72341e-06
7.69058e-07 3.70832e-06 7.57307e-06
2.34306e-06 -1.99715e-06 6.55523e-06
2.01564e-05 5.89777e-06 1.64535e-05
5.07005e-06 2.05958e-05 1.64959e-05
3.42117e-07 -2.76798e-05 1.78539e-05
-1.73122e-06 7.09107e-07 4.60628e-06
-3.21148e-06 6.23043e-07 6.82408e-06
3.57719e-06 1.4754e-06 7.63655e-06
4.99225e-07 2.83236e-05 1.79272e-05
2.47602e-05 1.3734e-05 1.79183e-05
-2.03282e-05 1.55357e-05 1.74289e-05
1.1787e-06 1.36446e-06 4.45981e-06
-2.06394e-05 -1.57283e-05 1.75275e-05
-1.89987e-05 -2.32216e-06 1.5946e-05
-1.9559e-05 -5.58494e-06 1.63321e-05
9.05676e-07 -3.24773e-06 7.00604e-06
-4.36599e-06 -1.97891e-05 1.63217e-05
-7.93721e-06 1.38343e-05 1.5101e-05
1.16574e-06 -1.30417e-06 4.33925e-06
1.19343e-05 -1.12283e-05 1.52921e-05
6.13303e-06 -2.26959e-05 1.68204e-05
-1.4522e-05 1.43553e-05 1.63235e-05
7.92901e-06 1.33211e-05 1.49479e-05
1.79366e-06 8.58738e-07 -4.5522e-06
1.7378e-06 -8.25107e-07 -4.46075e-06
4.3195e-07 1.84961e-06 -4.49506e-06
4.36094e-07 -1.78061e-06 -4.35604e-06
-1.84747e-06 2.09629e-08 -4.42231e-06
-1.12308e-06 -1.30886e-06 -4.15095e-06
-1.1592e-06 1.30679e-06 -4.19973e-06
-2.25128e-05 -7.28758e-06 -1.69998e-05
-2.21962e-05 7.37147e-06 -1.69684e-05
-4.8604e-06 2.28982e-05 -1.69368e-05
-4.85791e-06 -2.31314e-05 -1.69637e-05
1.7421e-05 1.56353e-05 -1.69297e-05
1.75686e-05 -1.55363e-05 -1.69389e-05
2.10733e-05 3.16384e-06 -1.63242e-05
-1.39529e-05 1.71511e-05 -1.64782e-05
-1.3591e-05 -1.67411e-05 -1.64097e-05
7.76776e-06 1.98193e-05 -1.6331e-05
7.68478e-06 -2.03097e-05 -1.64023e-05
2.1472e-05 -3.44368e-06 -1.64e-05
-2.11025e-05 6.58808e-09 -1.62464e-05
-2.24201e-05 1.09996e-05 -1.74534e-05
-1.87507e-05 9.25459e-06 -1.66269e-05
-1.79825e-05 5.79538e-06 -1.60361e-05
-1.49838e-05 7.44824e-06 -1.54861e-05
-1.42243e-05 4.30766e-06 -1.48294e-05
-1.15325e-05 5.74381e-06 -1.40945e-05
-1.08579e-05 3.0687e-06 -1.33733e-05
-8.40038e-06 4.30482e-06 -1.24041e-05
-9.05869e-06 7.01332e-06 -1.34561e-05
-6.20403e-06 5.48844e-06 -1.16887e-05
-6.82822e-06 8.24934e-06 -1.30797e-05
-4.28134e-06 6.67483e-06 -1.14502e-05
-4.79995e-06 9.6098e-06 -1.30936e-05
-2.40084e-06 7.99325e-06 -1.17227e-05
-2.81281e-06 1.11671e-05 -1.34746e-05
-4.75404e-07 9.59517e-06 -1.25007e-05
-7.38344e-07 1.29967e-05 -1.41414e-05
1.73106e-06 1.15176e-05 -1.35347e-05
-5.53462e-06 1.27002e-05 -1.44366e-05
1.68506e-06 8.22388e-06 -1.17473e-05
4.00413e-06 1.01208e-05 -1.31507e-05
3.70531e-06 7.09786e-06 -1.1478e-05
6.06733e-06 8.96656e-06 -1.31131e-05
5.76675e-06 6.10672e-06 -1.17353e-05
8.35798e-06 8.02022e-06 -1.34917e-05
8.10555e-06 5.1952e-06 -1.25001e-05
1.09539e-05 7.09696e-06 -1.41467e-05
1.07458e-05 4.32274e-06 -1.34988e-05
8.53042e-06 1.10373e-05 -1.44605e-05
7.9376e-06 2.64371e-06 -1.17271e-05
1.06459e-05 1.73718e-06 -1.31037e-05
7.94859e-06 3.58756e-07 -1.14553e-05
1.08063e-05 -7.59103e-07 -1.31238e-05
8.11155e-06 -1.93778e-06 -1.17088e-05
1.10981e-05 -3.31281e-06 -1.34836e-05
8.46963e-06 -4.42393e-06 -1.24438e-05
1.15036e-05 -6.00281e-06 -1.41091e-05
8.95546e-06 -7.13802e-06 -1.34278e-05
6.14745e-06 -5.49435e-06 -1.1641e-05
6.64442e-06 -8.30076e-06 -1.3018e-05
4.10516e-06 -6.58843e-06 -1.13107e-05
4.5233e-06 -9.55075e-06 -1.2988e-05
2.24227e-06 -7.85819e-06 -1.15971e-05
2.48481e-06 -1.10018e-05 -1.33507e-05
2.25289e-07 -9.37358e-06 -1.23533e-05
3.3001e-07 -1.27697e-05 -1.40336e-05
-1.91541e-06 -1.11506e-05 -1.33767e-05
-1.84105e-06 -7.92153e-06 -1.15819e-05
-4.16785e-06 -9.87474e-06 -1.30848e-05
-3.8139e-06 -6.73042e-06 -1.13169e-05
-6.34555e-06 -8.66192e-06 -1.3099e-05
-5.89123e-06 -5.69795e-06 -1.16282e-05
-8.49962e-06 -7.43571e-06 -1.33794e-05
-8.16745e-06 -4.728e-06 -1.24084e-05
-1.10955e-05 -6.4027e-06 -1.40696e-05
-4.3716e-06 -1.3123e-05 -1.44334e-05
-1.08087e-05 -3.65064e-06 -1.3439e-05
7.22604e-06 -1.13726e-05 -1.42727e-05
-7.74162e-06 1.98266e-06 -1.14927e-05
-1.3216e-05 1.03505e-06 -1.42107e-05
1.7291e-06 1.50826e-05 -1.4952e-05
1.37679e-05 4.62232e-07 -1.43875e-05
1.3843e-05 6.10004e-06 -1.49315e-05
-9.69395e-06 1.01962e-05 -1.45323e-05
-5.41596e-06 -3.19762e-06 -1.0182e-05
-1.17135e-05 -9.29724e-06 -1.4889e-05
1.18823e-05 -8.76012e-06 -1.47869e-05
1.47816e-05 -7.47353e-06 -1.54031e-05
-1.39596e-05 -5.24384e-06 -1.48615e-05
2.79579e-06 -1.4516e-05 -1.4796e-05
4.24559e-07 -1.64992e-05 -1.53976e-05
3.5184e-06 4.3969e-06 -9.58098e-06
1.40104e-05 9.29896e-06 -1.54914e-05
1.79306e-05 8.14488e-06 -1.63004e-05
-1.56753e-05 1.13952e-05 -1.62333e-05
-1.09408e-06 1.67689e-05 -1.54951e-05
1.90685e-06 1.96214e-05 -1.63108e-05
-2.09185e-06 5.22003e-06 -9.59748e-06
5.55389e-06 -7.84597e-07 -9.59402e-06
3.58592e-06 -3.68353e-06 -9.08187e-06
-1.77962e-06 -5.17853e-06 -9.44949e-06
-2.24686e-05 -1.10107e-05 -1.74742e-05
-1.8798e-05 -9.24133e-06 -1.66509e-05
2.11477e-05 1.41647e-05 -1.75055e-05
2.07536e-05 -1.43175e-05 -1.74354e-05
-1.7646e-06 -2.54463e-05 -1.75108e-05
-1.68213e-06 2.54103e-05 -1.75155e-05
1.77128e-05 -1.19068e-05 -1.6687e-05
2.06455e-05 -1.0751e-05 -1.71158e-05
3.77561e-06 -1.89849e-05 -1.61392e-05
7.68526e-07 -2.03456e-05 -1.64827e-05
-1.94049e-05 -1.26504e-05 -1.7143e-05
-1.3731e-05 -2.3069e-06 -1.44717e-05
-1.65925e-05 -3.70139e-06 -1.54774e-05
-1.03757e-05 -1.09637e-06 -1.29519e-05
2.44519e-05 1.10727e-05 -1.76515e-05
2.54974e-05 -1.24031e-05 -1.7848e-05
2.64924e-06 2.67257e-05 -1.76604e-05
2.52099e-06 -2.64134e-05 -1.76292e-05
3.33944e-06 -2.30317e-05 -1.70289e-05
-2.05387e-06 -1.83197e-05 -1.59507e-05
4.05904e-06 2.37911e-05 -1.71302e-05
2.26139e-05 8.37916e-06 -1.71191e-05
4.61356e-06 1.73131e-05 -1.57271e-05
1.44268e-05 -1.31193e-05 -1.61372e-05
-1.57875e-05 -1.09846e-05 -1.62144e-05
-1.67996e-05 -3.81423e-07 -1.53771e-05
1.73057e-05 4.68742e-06 -1.57255e-05
6.55214e-08 -6.38724e-06 -1.02673e-05
1.74169e-06 -4.84841e-06 -9.09237e-06
5.8504e-06 -2.93548e-06 -1.0378e-05
-2.14439e-05 3.75046e-06 -1.64586e-05
5.7293e-06 -1.62743e-05 -1.55075e-05
9.08335e-06 -1.74988e-05 -1.59973e-05
1.7572e-05 1.18815e-05 -1.66721e-05
1.3994e-05 -1.6382e-05 -1.6401e-05
1.07398e-05 -1.37888e-05 -1.55499e-05
-3.54793e-06 -4.22015e-06 -9.50064e-06
5.39906e-06 1.13848e-06 -9.49892e-06
5.21799e-06 3.22284e-06 -1.00471e-05
-1.74978e-06 -2.83542e-05 -1.78767e-05
1.89204e-06 5.29883e-06 -9.58432e-06
-1.13822e-07 6.10493e-06 -1.00386e-05
-3.78488e-06 4.12769e-06 -9.57827e-06
-5.62261e-06 3.03415e-06 -1.02851e-05
-5.16541e-06 1.04066e-06 -9.21348e-06
-7.52715e-06 -6.17384e-08 -1.11722e-05
-4.33432e-06 -8.10269e-07 -8.38174e-06
-3.10855e-06 1.87232e-06 -7.37397e-06
-2.20809e-05 -3.6077e-06 -1.65156e-05
2.34059e-05 -1.56878e-05 -1.7836e-05
-1.50718e-06 2.11676e-05 -1.66819e-05
2.12614e-05 -8.45183e-08 -1.62255e-05
1.76218e-05 -1.64678e-06 -1.55812e-05
1.73475e-05 -4.9416e-06 -1.57705e-05
2.18913e-05 -7.45101e-06 -1.69134e-05
-2.31819e-05 -1.42544e-05 -1.78325e-05
1.73244e-05 1.64885e-06 -1.55083e-05
-1.73399e-06 2.84728e-05 -1.7894e-05
-4.22067e-07 3.68338e-06 -7.4952e-06