# vtk DataFile Version 3.0
vtk output at time 220
ASCII
DATASET UNSTRUCTURED_GRID
POINTS 626 float
-3.68058e-05 0.000978749 0 3.68058e-05 0.000978749 0 -0.000829194 0.00052125 0 
-0.0008235 0.0005 0 -0.000866 0.0004575 0 -0.000866 -0.0004575 0 
-0.0008235 -0.0005 0 -0.000829194 -0.00052125 0 -3.68058e-05 -0.000978749 0 
3.68058e-05 -0.000978749 0 0.000829194 -0.00052125 0 0.000866 -0.0004575 0 
0.000866 0.0004575 0 0.000829194 0.00052125 0 8.5e-05 0 0 
-3.68058e-05 0.000978749 -0.001 3.68058e-05 0.000978749 -0.001 -0.000829194 0.00052125 -0.001 
-0.0008235 0.0005 -0.001 -0.000866 0.0004575 -0.001 -0.000866 -0.0004575 -0.001 
-0.0008235 -0.0005 -0.001 -0.000829194 -0.00052125 -0.001 -3.68058e-05 -0.000978749 -0.001 
3.68058e-05 -0.000978749 -0.001 0.000829194 -0.00052125 -0.001 0.000866 -0.0004575 -0.001 
0.000866 0.0004575 -0.001 0.000829194 0.00052125 -0.001 8.5e-05 0 -0.001 
8.46223e-17 0.0009575 0 -0.000715996 0.000586607 0 -0.000602797 0.000651965 0 
-0.000489599 0.000717321 0 -0.000376401 0.000782678 0 -0.000263202 0.000848036 0 
-0.000150004 0.000913393 0 -0.000835948 0.000469948 0 -0.000866 -0.000326786 0 
-0.000866 -0.000196071 0 -0.000866 -6.53571e-05 0 -0.000866 6.53571e-05 0 
-0.000866 0.000196071 0 -0.000866 0.000326786 0 -0.000835948 -0.000469948 0 
-0.000150004 -0.000913393 0 -0.000263202 -0.000848036 0 -0.000376401 -0.000782678 0 
-0.000489599 -0.000717321 0 -0.000602797 -0.000651965 0 -0.000715996 -0.000586607 0 
8.47648e-17 -0.0009575 0 0.000715996 -0.000586607 0 0.000602797 -0.000651965 0 
0.000489599 -0.000717321 0 0.000376401 -0.000782678 0 0.000263202 -0.000848036 0 
0.000150004 -0.000913393 0 0.000829194 -0.00047875 0 0.000866 0.000326786 0 
0.000866 0.000196071 0 0.000866 6.53571e-05 0 0.000866 -6.53571e-05 0 
0.000866 -0.000196071 0 0.000866 -0.000326786 0 0.000829194 0.00047875 0 
0.000150004 0.000913393 0 0.000263202 0.000848036 0 0.000376401 0.000782678 0 
0.000489599 0.000717321 0 0.000602797 0.000651965 0 0.000715996 0.000586607 0 
5.29966e-05 6.64557e-05 0 -1.89143e-05 8.28689e-05 0 -7.65824e-05 3.68801e-05 0 
-7.65824e-05 -3.68801e-05 0 -1.89143e-05 -8.28689e-05 0 5.29966e-05 -6.64557e-05 0 
8.46223e-17 0.0009575 -0.001 -0.000715996 0.000586607 -0.001 -0.000602797 0.000651965 -0.001 
-0.000489599 0.000717321 -0.001 -0.000376401 0.000782678 -0.001 -0.000263202 0.000848036 -0.001 
-0.000150004 0.000913393 -0.001 -0.000835948 0.000469948 -0.001 -0.000866 -0.000326786 -0.001 
-0.000866 -0.000196071 -0.001 -0.000866 -6.53571e-05 -0.001 -0.000866 6.53571e-05 -0.001 
-0.000866 0.000196071 -0.001 -0.000866 0.000326786 -0.001 -0.000835948 -0.000469948 -0.001 
-0.000150004 -0.000913393 -0.001 -0.000263202 -0.000848036 -0.001 -0.000376401 -0.000782678 -0.001 
-0.000489599 -0.000717321 -0.001 -0.000602797 -0.000651965 -0.001 -0.000715996 -0.000586607 -0.001 
8.47648e-17 -0.0009575 -0.001 0.000715996 -0.000586607 -0.001 0.000602797 -0.000651965 -0.001 
0.000489599 -0.000717321 -0.001 0.000376401 -0.000782678 -0.001 0.000263202 -0.000848036 -0.001 
0.000150004 -0.000913393 -0.001 0.000829194 -0.00047875 -0.001 0.000866 0.000326786 -0.001 
0.000866 0.000196071 -0.001 0.000866 6.53571e-05 -0.001 0.000866 -6.53571e-05 -0.001 
0.000866 -0.000196071 -0.001 0.000866 -0.000326786 -0.001 0.000829194 0.00047875 -0.001 
0.000150004 0.000913393 -0.001 0.000263202 0.000848036 -0.001 0.000376401 0.000782678 -0.001 
0.000489599 0.000717321 -0.001 0.000602797 0.000651965 -0.001 0.000715996 0.000586607 -0.001 
5.29966e-05 6.64557e-05 -0.001 -1.89143e-05 8.28689e-05 -0.001 -7.65824e-05 3.68801e-05 -0.001 
-7.65824e-05 -3.68801e-05 -0.001 -1.89143e-05 -8.28689e-05 -0.001 5.29966e-05 -6.64557e-05 -0.001 
0.000131234 6.38474e-05 0 0.00012964 -6.2443e-05 0 3.13827e-05 0.0001394 0 
3.12554e-05 -0.000136939 0 -0.000140461 8.25467e-19 0 -8.90565e-05 -0.000102707 0 
-9.04142e-05 0.000102872 0 -0.000765769 -0.00025965 0 -0.000756873 0.000262774 0 
-0.00015609 0.000787505 0 -0.000155807 -0.00079355 0 0.000605069 0.000528035 0 
0.000608694 -0.00052497 0 0.000744069 0.000116929 0 -0.000494418 0.000596218 0 
-0.000483866 -0.000584648 0 0.000269496 0.000702219 0 0.000263201 -0.000717324 0 
0.000754429 -0.000127825 0 -0.000748858 5.84659e-07 0 -0.000747838 0.000373886 0 
-0.0006542 0.000324842 0 -0.000645137 0.000210123 0 -0.000550884 0.000274171 0 
-0.000538857 0.000163195 0 -0.00045062 0.000224461 0 -0.000438393 0.000123907 0 
-0.000354088 0.000181668 0 -0.000363908 0.000282171 0 -0.000270361 0.000239477 0 
-0.000279138 0.000337653 0 -0.000188888 0.000294791 0 -0.000196448 0.000393271 0 
-0.000104767 0.000348259 0 -0.000113332 0.000449012 0 -2.01066e-05 0.000403223 0 
-2.89189e-05 0.000507105 0 6.9524e-05 0.000461596 0 -0.000213644 0.000490203 0 
7.33757e-05 0.000357726 0 0.000163331 0.00041299 0 0.000163359 0.000313022 0 
0.000248077 0.000366368 0 0.000250914 0.000265758 0 0.000335709 0.000322266 0 
0.000340555 0.000218148 0 0.000427299 0.000276717 0 0.000431508 0.000173093 0 
0.000328731 0.000425633 0 0.00034586 0.000114823 0 0.000435362 7.05241e-05 0 
0.000350892 1.5455e-05 0 0.000441547 -3.11896e-05 0 0.000353547 -8.47783e-05 0 
0.000445767 -0.000132964 0 0.000356135 -0.000186358 0 0.000449094 -0.000234674 0 
0.000359978 -0.000287876 0 0.00026856 -0.000240545 0 0.000271895 -0.000341045 0 
0.000181792 -0.00029305 0 0.00018533 -0.000392851 0 9.75701e-05 -0.00034483 0 
9.98764e-05 -0.000444884 0 8.75116e-06 -0.000396343 0 1.20916e-05 -0.000500496 0 
-7.83929e-05 -0.000449843 0 -8.1471e-05 -0.000347249 0 -0.000171566 -0.000403733 0 
-0.000169889 -0.000298891 0 -0.000259867 -0.000354132 0 -0.000257696 -0.000249137 0 
-0.00034313 -0.000299896 0 -0.000344514 -0.000199127 0 -0.000434309 -0.000250039 0 
-0.000169832 -0.000505815 0 -0.000435227 -0.000146227 0 0.000280331 -0.000442424 0 
-0.000340889 8.76793e-05 0 -0.000515252 4.06198e-05 0 6.50491e-05 0.000568253 0 
0.00053278 1.74743e-05 0 0.000522071 0.000229831 0 -0.00037162 0.000391659 0 
-0.000255272 -0.000150439 0 -0.000442893 -0.000350705 0 0.000450067 -0.000332559 0 
0.000545175 -0.000276306 0 -0.000527797 -0.000197598 0 0.000105306 -0.000551033 0 
1.45836e-05 -0.000609147 0 0.00017145 0.000214453 0 0.000515525 0.000341711 0 
0.000636086 0.000290368 0 -0.000558657 0.000404468 0 -4.01232e-05 0.000616718 0 
6.60192e-05 0.000696422 0 -0.000101806 0.0002546 0 0.000271142 -3.88908e-05 0 
0.000179455 -0.00018534 0 -8.79553e-05 -0.000254307 0 -0.000749267 -0.000373451 0 
-0.000655941 -0.000323397 0 0.000709746 0.000466718 0 0.000698426 -0.000473086 0 
-5.25801e-05 -0.00084886 0 -4.93005e-05 0.000848038 0 0.000617396 -0.000413362 0 
0.000702056 -0.000369817 0 0.000131459 -0.000679171 0 2.48171e-05 -0.000715924 0 
-0.000664217 -0.00042729 0 -0.000528828 -8.80444e-05 0 -0.000611101 -0.000136672 0 
-0.000426972 -4.45841e-05 0 0.000800669 0.000378216 0 0.000821144 -0.000415062 0 
7.2799e-05 0.00088254 0 6.81831e-05 -0.00087503 0 0.000104963 -0.000788946 0 
-7.40696e-05 -0.000660054 0 0.000126061 0.000809943 0 0.000764361 0.000295682 0 
0.000166862 0.000630623 0 0.000516462 -0.00046707 0 -0.000563585 -0.000389606 0 
-0.000622598 -1.40238e-05 0 0.000629891 0.000171529 0 2.5614e-06 -0.000299794 0 
8.6901e-05 -0.00024329 0 0.000272045 -0.000136982 0 -0.00075148 0.000138321 0 
0.000209366 -0.000599589 0 0.000324913 -0.000630055 0 0.000614044 0.00041245 0 
0.00049651 -0.000573327 0 0.000394822 -0.000507321 0 -0.000173714 -0.000206698 0 
0.000264897 5.63722e-05 0 0.000247997 0.000152811 0 -4.63327e-05 -0.000920208 0 
9.18688e-05 0.000258626 0 -5.54111e-06 0.000290558 0 -0.000184219 0.000201484 0 
-0.000263559 0.000142267 0 -0.000256427 5.13624e-05 0 -0.000336894 -2.06179e-06 0 
-0.000228499 -4.2388e-05 0 -0.00017589 0.000106626 0 -0.000769947 -0.000133367 0 
0.000767591 -0.000500293 0 -5.05874e-05 0.000737978 0 0.000754456 -3.51771e-06 0 
0.00064691 -6.15298e-05 0 0.000630483 -0.00018134 0 0.000749187 -0.000265543 0 
-0.000760805 -0.000462521 0 0.000638155 6.09315e-05 0 -4.46661e-05 0.000922995 0 
-2.37945e-05 0.000207237 0 0.000776979 0.000500181 0 -0.000605691 0.000527596 0 
-0.000377914 -0.000653727 0 -0.000372325 -0.000526022 0 -0.000275829 -0.000589621 0 
-0.000254285 -0.000710579 0 -0.000379307 0.000656222 0 -0.000379818 0.00052718 0 
-0.000266817 0.000721555 0 -0.000150544 0.000668174 0 0.000381963 0.00065079 0 
0.000493113 0.000590432 0 0.000505439 0.000463708 0 -0.000269094 0.000596608 0 
0.000385815 0.000532045 0 0.000283599 0.0005899 0 -0.000176405 -0.000108505 0 
-0.000278769 -0.000475415 0 0.000185395 2.33014e-06 0 0.000186773 0.000517571 0 
0.000540032 -8.68444e-05 0 -0.000600694 -0.000514877 0 -0.00063703 8.98033e-05 0 
-0.000459677 0.000335729 0 -0.000338836 -0.000100751 0 -0.000457327 0.000432721 0 
-8.72007e-06 -0.000210238 0 0.000156073 0.000129496 0 -7.70692e-05 -0.000555049 0 
0.00036091 -0.000389728 0 0.000531628 0.000120564 0 -0.000285451 0.000435562 0 
0.000192719 -0.000494604 0 0.00041642 0.00039368 0 -0.000135943 0.000554637 0 
-0.000170665 -0.000610079 0 -0.000666304 0.000434981 0 -0.000758736 0.000479231 0 
-0.000470189 -0.000458901 0 0.000203433 -8.59809e-05 0 0.000101846 0.000170114 0 
-0.00035513 -0.00040726 0 0.000100184 -0.000165831 0 2.96286e-05 0.00081537 0 
0.000720946 0.000381836 0 -0.000539809 -0.000292001 0 0.00052211 -0.000182426 0 
-6.41339e-05 -0.000753908 0 0.000638039 -0.000299861 0 -0.000605136 -0.000230182 0 
-3.41638e-05 -0.000145561 0 -0.000104037 0.000172396 0 -0.000808575 -0.00042774 0 
-0.000807207 -0.000465052 0 -0.00080817 0.000429771 0 -0.000806589 0.000469738 0 
-9.50634e-05 -0.000178909 0 0.000247777 0.000445058 0 1.48293e-05 -0.000814201 0 
-4.11555e-05 0.000140955 0 0.000276104 -0.000536845 0 0.000765969 -0.000436638 0 
0.000780871 -0.000362769 0 0.000424176 -0.000642018 0 0.00053413 -0.000368009 0 
-0.000416333 4.17911e-05 0 -0.000133891 -6.23822e-05 0 4.2574e-05 0.000206312 0 
[...]
POINT_DATA 626
VECTORS displacement float
-1.74395e-06 3.09547e-05 1.80551e-05
1.73565e-06 3.09737e-05 1.81002e-05
-2.59865e-05 1.6993e-05 1.80871e-05
-2.58411e-05 1.60331e-05 1.80517e-05
-2.77208e-05 1.39729e-05 1.80691e-05
-2.77138e-05 -1.40192e-05 1.80946e-05
-2.58123e-05 -1.60713e-05 1.81059e-05
-2.59827e-05 -1.7011e-05 1.81671e-05
-1.6774e-06 -3.09584e-05 1.80515e-05
1.75545e-06 -3.09599e-05 1.8102e-05
2.59438e-05 -1.69808e-05 1.80436e-05
2.77172e-05 -1.39368e-05 1.80434e-05
2.76726e-05 1.39895e-05 1.80917e-05
2.59151e-05 1.69931e-05 1.80461e-05
0 0 0
-1.74395e-06 3.09547e-05 -1.80551e-05
1.73565e-06 3.09737e-05 -1.81002e-05
-2.59865e-05 1.6993e-05 -1.80871e-05
-2.58411e-05 1.60331e-05 -1.80517e-05
-2.77208e-05 1.39729e-05 -1.80691e-05
-2.77138e-05 -1.40192e-05 -1.80946e-05
-2.58123e-05 -1.60713e-05 -1.81059e-05
-2.59827e-05 -1.7011e-05 -1.81671e-05
-1.6774e-06 -3.09584e-05 -1.80515e-05
1.75545e-06 -3.09599e-05 -1.8102e-05
2.59438e-05 -1.69808e-05 -1.80436e-05
2.77172e-05 -1.39368e-05 -1.80434e-05
2.76726e-05 1.39895e-05 -1.80917e-05
2.59151e-05 1.69931e-05 -1.80461e-05
0 0 0
2.48934e-08 3.01545e-05 1.80343e-05
-2.11408e-05 1.87125e-05 1.75498e-05
-1.72326e-05 1.9834e-05 1.69209e-05
-1.40071e-05 2.10544e-05 1.6555e-05
-1.12069e-05 2.2665e-05 1.65489e-05
-8.52413e-06 2.4833e-05 1.69014e-05
-5.56781e-06 2.76219e-05 1.75375e-05
-2.645e-05 1.46792e-05 1.80336e-05
-2.67689e-05 -9.01161e-06 1.75775e-05
-2.58064e-05 -5.03552e-06 1.6926e-05
-2.52547e-05 -1.63622e-06 1.65715e-05
-2.52576e-05 1.60786e-06 1.65744e-05
-2.57987e-05 5.02292e-06 1.69242e-05
-2.67551e-05 8.98469e-06 1.7564e-05
-2.64369e-05 -1.47256e-05 1.80623e-05
-5.54107e-06 -2.76364e-05 1.75297e-05
-8.47665e-06 -2.48421e-05 1.69007e-05
-1.11701e-05 -2.26844e-05 1.65562e-05
-1.39707e-05 -2.10874e-05 1.65596e-05
-1.72151e-05 -1.98693e-05 1.69367e-05
-2.11344e-05 -1.87493e-05 1.75623e-05
8.98387e-08 -3.01393e-05 1.80294e-05
2.11241e-05 -1.86249e-05 1.75115e-05
1.72448e-05 -1.97623e-05 1.68729e-05
1.4034e-05 -2.10113e-05 1.65117e-05
1.12251e-05 -2.25931e-05 1.65462e-05
8.58129e-06 -2.47803e-05 1.68742e-05
5.65469e-06 -2.76266e-05 1.75351e-05
2.61247e-05 -1.50598e-05 1.80284e-05
2.6717e-05 8.93848e-06 1.75016e-05
2.57222e-05 5.04964e-06 1.69085e-05
2.52068e-05 1.62334e-06 1.65233e-05
2.52039e-05 -1.59945e-06 1.65216e-05
2.57509e-05 -4.99743e-06 1.68884e-05
2.6699e-05 -8.91724e-06 1.75097e-05
2.61078e-05 1.50609e-05 1.80255e-05
5.63315e-06 2.7618e-05 1.75096e-05
8.50866e-06 2.4807e-05 1.69113e-05
1.12171e-05 2.26412e-05 1.65294e-05
1.40046e-05 2.10223e-05 1.65248e-05
1.72218e-05 1.97936e-05 1.68852e-05
2.11151e-05 1.86345e-05 1.75255e-05
0 0 0
0 0 0
0 0 0
0 0 0
0 0 0
0 0 0
2.48934e-08 3.01545e-05 -1.80343e-05
-2.11408e-05 1.87125e-05 -1.75498e-05
-1.72326e-05 1.9834e-05 -1.69209e-05
-1.40071e-05 2.10544e-05 -1.6555e-05
-1.12069e-05 2.2665e-05 -1.65489e-05
-8.52413e-06 2.4833e-05 -1.69014e-05
-5.56781e-06 2.76219e-05 -1.75375e-05
-2.645e-05 1.46792e-05 -1.80336e-05
-2.67689e-05 -9.01161e-06 -1.75775e-05
-2.58064e-05 -5.03552e-06 -1.6926e-05
-2.52547e-05 -1.63622e-06 -1.65715e-05
-2.52576e-05 1.60786e-06 -1.65744e-05
-2.57987e-05 5.02292e-06 -1.69242e-05
-2.67551e-05 8.98469e-06 -1.7564e-05
-2.64369e-05 -1.47256e-05 -1.80623e-05
-5.54107e-06 -2.76364e-05 -1.75297e-05
-8.47665e-06 -2.48421e-05 -1.69007e-05
-1.11701e-05 -2.26844e-05 -1.65562e-05
-1.39707e-05 -2.10874e-05 -1.65596e-05
-1.72151e-05 -1.98693e-05 -1.69367e-05
-2.11344e-05 -1.87493e-05 -1.75623e-05
8.98387e-08 -3.01393e-05 -1.80294e-05
2.11241e-05 -1.86249e-05 -1.75115e-05
1.72448e-05 -1.97623e-05 -1.68729e-05
1.4034e-05 -2.10113e-05 -1.65117e-05
1.12251e-05 -2.25931e-05 -1.65462e-05
8.58129e-06 -2.47803e-05 -1.68742e-05
5.65469e-06 -2.76266e-05 -1.75351e-05
2.61247e-05 -1.50598e-05 -1.80284e-05
2.6717e-05 8.93848e-06 -1.75016e-05
2.57222e-05 5.04964e-06 -1.69085e-05
2.52068e-05 1.62334e-06 -1.65233e-05
2.52039e-05 -1.59945e-06 -1.65216e-05
2.57509e-05 -4.99743e-06 -1.68884e-05
2.6699e-05 -8.91724e-06 -1.75097e-05
2.61078e-05 1.50609e-05 -1.80255e-05
5.63315e-06 2.7618e-05 -1.75096e-05
8.50866e-06 2.4807e-05 -1.69113e-05
1.12171e-05 2.26412e-05 -1.65294e-05
1.40046e-05 2.10223e-05 -1.65248e-05
1.72218e-05 1.97936e-05 -1.68852e-05
2.11151e-05 1.86345e-05 -1.75255e-05
0 0 0
0 0 0
0 0 0
0 0 0
0 0 0
0 0 0
1.79369e-06 8.5875e-07 4.55228e-06
1.73783e-06 -8.25118e-07 4.46083e-06
4.31955e-07 1.84963e-06 4.49514e-06
4.361e-07 -1.78064e-06 4.35611e-06
-1.84749e-06 2.09632e-08 4.42239e-06
-1.12309e-06 -1.30888e-06 4.15102e-06
-1.15921e-06 1.3068e-06 4.1998e-06
-2.25132e-05 -7.28772e-06 1.7e-05
-2.21965e-05 7.37161e-06 1.69687e-05
-4.86047e-06 2.28986e-05 1.69371e-05
-4.85798e-06 -2.31318e-05 1.6964e-05
1.74213e-05 1.56356e-05 1.69299e-05
1.75689e-05 -1.55365e-05 1.69392e-05
2.10736e-05 3.1639e-06 1.63244e-05
-1.39532e-05 1.71514e-05 1.64784e-05
-1.35913e-05 -1.67413e-05 1.641e-05
7.76789e-06 1.98196e-05 1.63312e-05
7.68491e-06 -2.03101e-05 1.64025e-05
2.14724e-05 -3.44376e-06 1.64002e-05
-2.11028e-05 6.5881e-09 1.62467e-05
-2.24205e-05 1.09998e-05 1.74537e-05
-1.8751e-05 9.25475e-06 1.66271e-05
-1.79829e-05 5.79548e-06 1.60363e-05
-1.4984e-05 7.44837e-06 1.54864e-05
-1.42245e-05 4.30774e-06 1.48297e-05
-1.15327e-05 5.74392e-06 1.40947e-05
-1.08581e-05 3.06875e-06 1.33735e-05
-8.40053e-06 4.30489e-06 1.24043e-05
-9.05885e-06 7.01344e-06 1.34563e-05
-6.20413e-06 5.48853e-06 1.16889e-05
-6.82834e-06 8.24948e-06 1.30799e-05
-4.28142e-06 6.67494e-06 1.14504e-05
-4.80003e-06 9.60997e-06 1.30939e-05
-2.40088e-06 7.99338e-06 1.17229e-05
-2.81287e-06 1.11673e-05 1.34749e-05
-4.75413e-07 9.59534e-06 1.25009e-05
-7.38358e-07 1.2997e-05 1.41417e-05
1.73109e-06 1.15178e-05 1.35349e-05
-5.53472e-06 1.27004e-05 1.44369e-05
1.68509e-06 8.22402e-06 1.17475e-05
4.0042e-06 1.01209e-05 1.31509e-05
3.70537e-06 7.09799e-06 1.14782e-05
6.06744e-06 8.96672e-06 1.31133e-05
5.76685e-06 6.10682e-06 1.17355e-05
8.35813e-06 8.02037e-06 1.3492e-05
8.10569e-06 5.19529e-06 1.25003e-05
1.09541e-05 7.09709e-06 1.41469e-05
1.0746e-05 4.32282e-06 1.3499e-05
8.53057e-06 1.10375e-05 1.44607e-05
7.93773e-06 2.64376e-06 1.17273e-05
1.06461e-05 1.73721e-06 1.3104e-05
7.94873e-06 3.58762e-07 1.14555e-05
1.08065e-05 -7.59117e-07 1.31241e-05
8.11169e-06 -1.93781e-06 1.17091e-05
1.10983e-05 -3.31287e-06 1.34839e-05
8.46978e-06 -4.424e-06 1.2444e-05
1.15038e-05 -6.00291e-06 1.41093e-05
8.95562e-06 -7.13815e-06 1.3428e-05
6.14756e-06 -5.49444e-06 1.16412e-05
6.64453e-06 -8.30091e-06 1.30182e-05
4.10523e-06 -6.58855e-06 1.13109e-05
4.52338e-06 -9.55092e-06 1.29882e-05
2.24231e-06 -7.85833e-06 1.15973e-05
2.48485e-06 -1.1002e-05 1.33509e-05
2.25292e-07 -9.37374e-06 1.23535e-05
3.30015e-07 -1.27699e-05 1.40338e-05
-1.91545e-06 -1.11508e-05 1.3377e-05
-1.84108e-06 -7.92166e-06 1.15821e-05
-4.16792e-06 -9.87491e-06 1.3085e-05
-3.81396e-06 -6.73054e-06 1.13171e-05
-6.34566e-06 -8.66207e-06 1.30993e-05
-5.89133e-06 -5.69804e-06 1.16284e-05
-8.49977e-06 -7.43584e-06 1.33797e-05
-8.1676e-06 -4.72809e-06 1.24086e-05
-1.10957e-05 -6.40281e-06 1.40699e-05
-4.37168e-06 -1.31233e-05 1.44337e-05
-1.08089e-05 -3.65071e-06 1.34392e-05
7.22617e-06 -1.13728e-05 1.4273e-05
-7.74175e-06 1.9827e-06 1.14929e-05
-1.32162e-05 1.03506e-06 1.42109e-05
1.72913e-06 1.50829e-05 1.49522e-05
1.37682e-05 4.62241e-07 1.43878e-05
1.38433e-05 6.10015e-06 1.49317e-05
-9.69413e-06 1.01963e-05 1.45325e-05
-5.41605e-06 -3.19768e-06 1.01822e-05
-1.17137e-05 -9.2974e-06 1.48892e-05
1.18825e-05 -8.76027e-06 1.47872e-05
1.47819e-05 -7.47366e-06 1.54034e-05
-1.39598e-05 -5.24393e-06 1.48617e-05
2.79584e-06 -1.45163e-05 1.47962e-05
4.24566e-07 -1.64995e-05 1.53978e-05
3.51846e-06 4.39697e-06 9.58115e-06
1.40107e-05 9.29913e-06 1.54917e-05
1.79309e-05 8.14502e-06 1.63006e-05
-1.56756e-05 1.13954e-05 1.62336e-05
-1.09409e-06 1.67692e-05 1.54954e-05
1.90687e-06 1.96218e-05 1.6311e-05
-2.09189e-06 5.22012e-06 9.59765e-06
5.55398e-06 -7.84609e-07 9.5942e-06
3.58598e-06 -3.68359e-06 9.08203e-06
-1.77965e-06 -5.17861e-06 9.44966e-06
-2.24689e-05 -1.10109e-05 1.74744e-05
-1.87983e-05 -9.24149e-06 1.66511e-05
2.1148e-05 1.41649e-05 1.75057e-05
2.07539e-05 -1.43177e-05 1.74357e-05
-1.76461e-06 -2.54467e-05 1.7511e-05
-1.68214e-06 2.54107e-05 1.75157e-05
1.77131e-05 -1.1907e-05 1.66873e-05
2.06459e-05 -1.07512e-05 1.71161e-05
3.77567e-06 -1.89853e-05 1.61395e-05
7.68536e-07 -2.03459e-05 1.64829e-05
-1.94052e-05 -1.26506e-05 1.71432e-05
-1.37312e-05 -2.30694e-06 1.44719e-05
-1.65928e-05 -3.70146e-06 1.54776e-05
-1.03759e-05 -1.09639e-06 1.29521e-05
2.44522e-05 1.10729e-05 1.76517e-05
2.54978e-05 -1.24033e-05 1.78482e-05
2.64926e-06 2.67262e-05 1.76606e-05
2.52101e-06 -2.64138e-05 1.76295e-05
3.33949e-06 -2.30321e-05 1.70292e-05
-2.05391e-06 -1.832e-05 1.5951e-05
4.05909e-06 2.37915e-05 1.71305e-05
2.26143e-05 8.37932e-06 1.71193e-05
4.61364e-06 1.73135e-05 1.57273e-05
1.44271e-05 -1.31195e-05 1.61375e-05
-1.57878e-05 -1.09848e-05 1.62146e-05
-1.67999e-05 -3.8143e-07 1.53774e-05
1.7306e-05 4.68751e-06 1.57257e-05
6.55222e-08 -6.38734e-06 1.02675e-05
1.74172e-06 -4.84849e-06 9.09253e-06
5.85049e-06 -2.93553e-06 1.03782e-05
-2.14443e-05 3.75053e-06 1.64589e-05
5.7294e-06 -1.62746e-05 1.55078e-05
9.08351e-06 -1.74991e-05 1.59976e-05
1.75723e-05 1.18817e-05 1.66724e-05
1.39943e-05 -1.63823e-05 1.64013e-05
1.074e-05 -1.37891e-05 1.55502e-05
-3.54799e-06 -4.22021e-06 9.50081e-06
5.39914e-06 1.1385e-06 9.49909e-06
5.21808e-06 3.22289e-06 1.00473e-05
-1.74979e-06 -2.83547e-05 1.78769e-05
1.89207e-06 5.29892e-06 9.58449e-06
-1.13824e-07 6.10503e-06 1.00388e-05
-3.78494e-06 4.12776e-06 9.57845e-06
-5.6227e-06 3.0342e-06 1.02853e-05
-5.16549e-06 1.04068e-06 9.21365e-06
-7.52728e-06 -6.17394e-08 1.11724e-05
-4.33439e-06 -8.10281e-07 8.38189e-06
-3.1086e-06 1.87234e-06 7.3741e-06
-2.20813e-05 -3.60777e-06 1.65159e-05
2.34063e-05 -1.5688e-05 1.78362e-05
-1.5072e-06 2.1168e-05 1.66821e-05
2.12617e-05 -8.45201e-08 1.62258e-05
1.76221e-05 -1.64681e-06 1.55815e-05
1.73478e-05 -4.9417e-06 1.57707e-05
2.18916e-05 -7.45115e-06 1.69137e-05
-2.31823e-05 -1.42546e-05 1.78328e-05
1.73247e-05 1.64888e-06 1.55086e-05
-1.734e-06 2.84732e-05 1.78942e-05
-4.22073e-07 3.68343e-06 7.49534e-06
2.3772e-05 1.57424e-05 1.78846e-05
-1.74974e-05 1.56423e-05 1.6975e-05
-1.06263e-05 -1.84662e-05 1.62551e-05
-1.00996e-05 -1.43424e-05 1.55717e-05
-7.50781e-06 -1.60949e-05 1.56221e-05
-7.32216e-06 -2.01206e-05 1.63953e-05
-1.07045e-05 1.85353e-05 1.62668e-05
-1.03474e-05 1.43842e-05 1.56194e-05
-7.77268e-06 2.04925e-05 1.64443e-05
-4.25301e-06 1.86098e-05 1.6053e-05
1.07597e-05 1.83455e-05 1.62262e-05
1.38917e-05 1.6935e-05 1.64311e-05
1.4042e-05 1.29729e-05 1.60513e-05
-7.36161e-06 1.62884e-05 1.56386e-05
1.05252e-05 1.45471e-05 1.56453e-05
7.74879e-06 1.60924e-05 1.5614e-05
-3.11648e-06 -1.89877e-06 7.39322e-06
-7.25768e-06 -1.24221e-05 1.46252e-05
3.00867e-06 4.03604e-08 6.60102e-06
4.8726e-06 1.35228e-05 1.46181e-05
1.40761e-05 -2.2604e-06 1.45705e-05
-1.72899e-05 -1.52168e-05 1.69456e-05
-1.73666e-05 2.42032e-06 1.55979e-05
-1.22048e-05 8.91199e-06 1.49435e-05
-7.70567e-06 -2.29253e-06 1.15547e-05
-1.24498e-05 1.18127e-05 1.554e-05
-1.42736e-07 -3.75424e-06 7.55423e-06
2.73024e-06 2.27209e-06 7.25197e-06
-2.00388e-06 -1.46506e-05 1.48081e-05
9.36515e-06 -1.00683e-05 1.43895e-05
1.38608e-05 3.15783e-06 1.45662e-05
-7.34009e-06 1.11994e-05 1.42604e-05
4.99725e-06 -1.27749e-05 1.43693e-05
1.10319e-05 1.04306e-05 1.49197e-05
-3.59647e-06 1.46854e-05 1.49081e-05
-4.6355e-06 -1.6617e-05 1.55489e-05
-1.95072e-05 1.28925e-05 1.71614e-05
-2.31271e-05 1.48583e-05 1.78435e-05
-1.2905e-05 -1.26862e-05 1.58126e-05
3.76082e-06 -1.58613e-06 7.907e-06
1.7644e-06 2.9223e-06 7.08448e-06
-9.23054e-06 -1.06095e-05 1.45319e-05
1.72775e-06 -2.82317e-06 6.93112e-06
9.94736e-07 2.4117e-05 1.73086e-05
2.13681e-05 1.11939e-05 1.72988e-05
-1.46647e-05 -7.95345e-06 1.54854e-05
1.37082e-05 -4.78636e-06 1.46907e-05
-1.9099e-06 -2.17631e-05 1.68028e-05
1.80605e-05 -8.41913e-06 1.63408e-05
-1.66791e-05 -6.32862e-06 1.57825e-05
-4.32903e-07 -1.92233e-06 4.79851e-06
-1.80538e-06 2.99546e-06 7.17723e-06
-2.50522e-05 -1.29819e-05 1.79224e-05
-2.51274e-05 -1.45074e-05 1.80022e-05
-2.50454e-05 1.30338e-05 1.79061e-05
-2.51182e-05 1.46501e-05 1.79823e-05
-1.64847e-06 -3.12487e-06 7.20997e-06
6.328e-06 1.13685e-05 1.40767e-05
5.33713e-07 -2.40863e-05 1.73023e-05
-5.22781e-07 1.80955e-06 4.64505e-06
7.40752e-06 -1.43438e-05 1.51525e-05
2.33031e-05 -1.32094e-05 1.77289e-05
2.36329e-05 -1.05376e-05 1.74909e-05
1.19885e-05 -1.82111e-05 1.62934e-05
1.47302e-05 -1.01467e-05 1.57957e-05
-1.00272e-05 1.00125e-06 1.27547e-05
-1.74002e-06 -8.15908e-07 4.72349e-06
7.6907e-07 3.70838e-06 7.57321e-06
2.34309e-06 -1.99717e-06 6.55534e-06
2.01567e-05 5.89788e-06 1.64537e-05
5.07013e-06 2.05961e-05 1.64961e-05
3.42118e-07 -2.76803e-05 1.78541e-05
-1.73124e-06 7.09116e-07 4.60636e-06
-3.21153e-06 6.23052e-07 6.8242e-06
3.57724e-06 1.47542e-06 7.63669e-06
4.99226e-07 2.8324e-05 1.79274e-05
2.47605e-05 1.37342e-05 1.79185e-05
-2.03285e-05 1.5536e-05 1.74292e-05
1.17872e-06 1.36448e-06 4.45989e-06
-2.06398e-05 -1.57285e-05 1.75277e-05
-1.89991e-05 -2.32221e-06 1.59463e-05
-1.95593e-05 -5.58504e-06 1.63324e-05
9.05689e-07 -3.24778e-06 7.00616e-06
-4.36606e-06 -1.97895e-05 1.6322e-05
-7.93735e-06 1.38345e-05 1.51012e-05
1.16576e-06 -1.30419e-06 4.33933e-06
1.19345e-05 -1.12285e-05 1.52923e-05
6.13312e-06 -2.26963e-05 1.68206e-05
-1.45223e-05 1.43555e-05 1.63238e-05
7.92915e-06 1.33214e-05 1.49481e-05
1.79369e-06 8.5875e-07 -4.55228e-06
1.73783e-06 -8.25118e-07 -4.46083e-06
4.31955e-07 1.84963e-06 -4.49514e-06
4.361e-07 -1.78064e-06 -4.35611e-06
-1.84749e-06 2.09632e-08 -4.42239e-06
-1.12309e-06 -1.30888e-06 -4.15102e-06
-1.15921e-06 1.3068e-06 -4.1998e-06
-2.25132e-05 -7.28772e-06 -1.7e-05
-2.21965e-05 7.37161e-06 -1.69687e-05
-4.86047e-06 2.28986e-05 -1.69371e-05
-4.85798e-06 -2.31318e-05 -1.6964e-05
1.74213e-05 1.56356e-05 -1.69299e-05
1.75689e-05 -1.55365e-05 -1.69392e-05
2.10736e-05 3.1639e-06 -1.63244e-05
-1.39532e-05 1.71514e-05 -1.64784e-05
-1.35913e-05 -1.67413e-05 -1.641e-05
7.76789e-06 1.98196e-05 -1.63312e-05
7.68491e-06 -2.03101e-05 -1.64025e-05
2.14724e-05 -3.44376e-06 -1.64002e-05
-2.11028e-05 6.5881e-09 -1.62467e-05
-2.24205e-05 1.09998e-05 -1.74537e-05
-1.8751e-05 9.25475e-06 -1.66271e-05
-1.79829e-05 5.79548e-06 -1.60363e-05
-1.4984e-05 7.44837e-06 -1.54864e-05
-1.42245e-05 4.30774e-06 -1.48297e-05
-1.15327e-05 5.74392e-06 -1.40947e-05
-1.08581e-05 3.06875e-06 -1.33735e-05
-8.40053e-06 4.30489e-06 -1.24043e-05
-9.05885e-06 7.01344e-06 -1.34563e-05
-6.20413e-06 5.48853e-06 -1.16889e-05
-6.82834e-06 8.24948e-06 -1.30799e-05
-4.28142e-06 6.67494e-06 -1.14504e-05
-4.80003e-06 9.60997e-06 -1.30939e-05
-2.40088e-06 7.99338e-06 -1.17229e-05
-2.81287e-06 1.11673e-05 -1.34749e-05
-4.75413e-07 9.59534e-06 -1.25009e-05
-7.38358e-07 1.2997e-05 -1.41417e-05
1.73109e-06 1.15178e-05 -1.35349e-05
-5.53472e-06 1.27004e-05 -1.44369e-05
1.68509e-06 8.22402e-06 -1.17475e-05
4.0042e-06 1.01209e-05 -1.31509e-05
3.70537e-06 7.09799e-06 -1.14782e-05
6.06744e-06 8.96672e-06 -1.31133e-05
5.76685e-06 6.10682e-06 -1.17355e-05
8.35813e-06 8.02037e-06 -1.3492e-05
8.10569e-06 5.19529e-06 -1.25003e-05
1.09541e-05 7.09709e-06 -1.41469e-05
1.0746e-05 4.32282e-06 -1.3499e-05
8.53057e-06 1.10375e-05 -1.44607e-05
7.93773e-06 2.64376e-06 -1.17273e-05
1.06461e-05 1.73721e-06 -1.3104e-05
7.94873e-06 3.58762e-07 -1.14555e-05
1.08065e-05 -7.59117e-07 -1.31241e-05
8.11169e-06 -1.93781e-06 -1.17091e-05
1.10983e-05 -3.31287e-06 -1.34839e-05
8.46978e-06 -4.424e-06 -1.2444e-05
1.15038e-05 -6.00291e-06 -1.41093e-05
8.95562e-06 -7.13815e-06 -1.3428e-05
6.14756e-06 -5.49444e-06 -1.16412e-05
6.64453e-06 -8.30091e-06 -1.30182e-05
4.10523e-06 -6.58855e-06 -1.13109e-05
4.52338e-06 -9.55092e-06 -1.29882e-05
2.24231e-06 -7.85833e-06 -1.15973e-05
2.48485e-06 -1.1002e-05 -1.33509e-05
2.25292e-07 -9.37374e-06 -1.23535e-05
3.30015e-07 -1.27699e-05 -1.40338e-05
-1.91545e-06 -1.11508e-05 -1.3377e-05
-1.84108e-06 -7.92166e-06 -1.15821e-05
-4.16792e-06 -9.87491e-06 -1.3085e-05
-3.81396e-06 -6.73054e-06 -1.13171e-05
-6.34566e-06 -8.66207e-06 -1.30993e-05
-5.89133e-06 -5.69804e-06 -1.16284e-05
-8.49977e-06 -7.43584e-06 -1.33797e-05
-8.1676e-06 -4.72809e-06 -1.24086e-05
-1.10957e-05 -6.40281e-06 -1.40699e-05
-4.37168e-06 -1.31233e-05 -1.44337e-05
-1.08089e-05 -3.65071e-06 -1.34392e-05
7.22617e-06 -1.13728e-05 -1.4273e-05
-7.74175e-06 1.9827e-06 -1.14929e-05
-1.32162e-05 1.03506e-06 -1.42109e-05
1.72913e-06 1.50829e-05 -1.49522e-05
1.37682e-05 4.62241e-07 -1.43878e-05
1.38433e-05 6.10015e-06 -1.49317e-05
-9.69413e-06 1.01963e-05 -1.45325e-05
-5.41605e-06 -3.19768e-06 -1.01822e-05
-1.17137e-05 -9.2974e-06 -1.48892e-05
1.18825e-05 -8.76027e-06 -1.47872e-05
1.47819e-05 -7.47366e-06 -1.54034e-05
-1.39598e-05 -5.24393e-06 -1.48617e-05
2.79584e-06 -1.45163e-05 -1.47962e-05
4.24566e-07 -1.64995e-05 -1.53978e-05
3.51846e-06 4.39697e-06 -9.58115e-06
1.40107e-05 9.29913e-06 -1.54917e-05
1.79309e-05 8.14502e-06 -1.63006e-05
-1.56756e-05 1.13954e-05 -1.62336e-05
-1.09409e-06 1.67692e-05 -1.54954e-05
1.90687e-06 1.96218e-05 -1.6311e-05
-2.09189e-06 5.22012e-06 -9.59765e-06
5.55398e-06 -7.84609e-07 -9.5942e-06
3.58598e-06 -3.68359e-06 -9.08203e-06
-1.77965e-06 -5.17861e-06 -9.44966e-06
-2.24689e-05 -1.10109e-05 -1.74744e-05
-1.87983e-05 -9.24149e-06 -1.66511e-05
2.1148e-05 1.41649e-05 -1.75057e-05
2.07539e-05 -1.43177e-05 -1.74357e-05
-1.76461e-06 -2.54467e-05 -1.7511e-05
-1.68214e-06 2.54107e-05 -1.75157e-05
1.77131e-05 -1.1907e-05 -1.66873e-05
2.06459e-05 -1.07512e-05 -1.71161e-05
3.77567e-06 -1.89853e-05 -1.61395e-05
7.68536e-07 -2.03459e-05 -1.64829e-05
-1.94052e-05 -1.26506e-05 -1.71432e-05
-1.37312e-05 -2.30694e-06 -1.44719e-05
-1.65928e-05 -3.70146e-06 -1.54776e-05
-1.03759e-05 -1.09639e-06 -1.29521e-05
2.44522e-05 1.10729e-05 -1.76517e-05
2.54978e-05 -1.24033e-05 -1.78482e-05
2.64926e-06 2.67262e-05 -1.76606e-05
2.52101e-06 -2.64138e-05 -1.76295e-05
3.33949e-06 -2.30321e-05 -1.70292e-05
-2.05391e-06 -1.832e-05 -1.5951e-05
4.05909e-06 2.37915e-05 -1.71305e-05
2.26143e-05 8.37932e-06 -1.71193e-05
4.61364e-06 1.73135e-05 -1.57273e-05
1.44271e-05 -1.31195e-05 -1.61375e-05
-1.57878e-05 -1.09848e-05 -1.62146e-05
-1.67999e-05 -3.8143e-07 -1.53774e-05
1.7306e-05 4.68751e-06 -1.57257e-05
6.55222e-08 -6.38734e-06 -1.02675e-05
1.74172e-06 -4.84849e-06 -9.09253e-06
5.85049e-06 -2.93553e-06 -1.03782e-05
-2.14443e-05 3.75053e-06 -1.64589e-05
5.7294e-06 -1.62746e-05 -1.55078e-05
9.08351e-06 -1.74991e-05 -1.59976e-05
1.75723e-05 1.18817e-05 -1.66724e-05
1.39943e-05 -1.63823e-05 -1.64013e-05
1.074e-05 -1.37891e-05 -1.55502e-05
-3.54799e-06 -4.22021e-06 -9.50081e-06
5.39914e-06 1.1385e-06 -9.49909e-06
5.21808e-06 3.22289e-06 -1.00473e-05
-1.74979e-06 -2.83547e-05 -1.78769e-05
1.89207e-06 5.29892e-06 -9.58449e-06
-1.13824e-07 6.10503e-06 -1.00388e-05
-3.78494e-06 4.12776e-06 -9.57845e-06
-5.6227e-06 3.0342e-06 -1.02853e-05
-5.16549e-06 1.04068e-06 -9.21365e-06
-7.52728e-06 -6.17394e-08 -1.11724e-05
-4.33439e-06 -8.10281e-07 -8.38189e-06
-3.1086e-06 1.87234e-06 -7.3741e-06
-2.20813e-05 -3.60777e-06 -1.65159e-05
2.34063e-05 -1.5688e-05 -1.78362e-05
-1.5072e-06 2.1168e-05 -1.66821e-05
2.12617e-05 -8.45201e-08 -1.62258e-05
1.76221e-05 -1.64681e-06 -1.55815e-05
1.73478e-05 -4.9417e-06 -1.57707e-05
2.18916e-05 -7.45115e-06 -1.69137e-05
-2.31823e-05 -1.42546e-05 -1.78328e-05
1.73247e-05 1.64888e-06 -1.55086e-05
-1.734e-06 2.84732e-05 -1.78942e-05