# vtk DataFile Version 3.0
vtk output at time 20
ASCII
DATASET UNSTRUCTURED_GRID
POINTS 626 float
-3.68058e-05 0.000978749 0 3.68058e-05 0.000978749 0 -0.000829194 0.00052125 0 
-0.0008235 0.0005 0 -0.000866 0.0004575 0 -0.000866 -0.0004575 0 
-0.0008235 -0.0005 0 -0.000829194 -0.00052125 0 -3.68058e-05 -0.000978749 0 
3.68058e-05 -0.000978749 0 0.000829194 -0.00052125 0 0.000866 -0.0004575 0 
0.000866 0.0004575 0 0.000829194 0.00052125 0 8.5e-05 0 0 
-3.68058e-05 0.000978749 -0.001 3.68058e-05 0.000978749 -0.001 -0.000829194 0.00052125 -0.001 
-0.0008235 0.0005 -0.001 -0.000866 0.0004575 -0.001 -0.000866 -0.0004575 -0.001 
-0.0008235 -0.0005 -0.001 -0.000829194 -0.00052125 -0.001 -3.68058e-05 -0.000978749 -0.001 
3.68058e-05 -0.000978749 -0.001 0.000829194 -0.00052125 -0.001 0.000866 -0.0004575 -0.001 
0.000866 0.0004575 -0.001 0.000829194 0.00052125 -0.001 8.5e-05 0 -0.001 
8.46223e-17 0.0009575 0 -0.000715996 0.000586607 0 -0.000602797 0.000651965 0 
-0.000489599 0.000717321 0 -0.000376401 0.000782678 0 -0.000263202 0.000848036 0 
-0.000150004 0.000913393 0 -0.000835948 0.000469948 0 -0.000866 -0.000326786 0 
-0.000866 -0.000196071 0 -0.000866 -6.53571e-05 0 -0.000866 6.53571e-05 0 
-0.000866 0.000196071 0 -0.000866 0.000326786 0 -0.000835948 -0.000469948 0 
-0.000150004 -0.000913393 0 -0.000263202 -0.000848036 0 -0.000376401 -0.000782678 0 
-0.000489599 -0.000717321 0 -0.000602797 -0.000651965 0 -0.000715996 -0.000586607 0 
8.47648e-17 -0.0009575 0 0.000715996 -0.000586607 0 0.000602797 -0.000651965 0 
0.000489599 -0.000717321 0 0.000376401 -0.000782678 0 0.000263202 -0.000848036 0 
0.000150004 -0.000913393 0 0.000829194 -0.00047875 0 0.000866 0.000326786 0 
0.000866 0.000196071 0 0.000866 6.53571e-05 0 0.000866 -6.53571e-05 0 
0.000866 -0.000196071 0 0.000866 -0.000326786 0 0.000829194 0.00047875 0 
0.000150004 0.000913393 0 0.000263202 0.000848036 0 0.000376401 0.000782678 0 
0.000489599 0.000717321 0 0.000602797 0.000651965 0 0.000715996 0.000586607 0 
5.29966e-05 6.64557e-05 0 -1.89143e-05 8.28689e-05 0 -7.65824e-05 3.68801e-05 0 
-7.65824e-05 -3.68801e-05 0 -1.89143e-05 -8.28689e-05 0 5.29966e-05 -6.64557e-05 0 
8.46223e-17 0.0009575 -0.001 -0.000715996 0.000586607 -0.001 -0.000602797 0.000651965 -0.001 
-0.000489599 0.000717321 -0.001 -0.000376401 0.000782678 -0.001 -0.000263202 0.000848036 -0.001 
-0.000150004 0.000913393 -0.001 -0.000835948 0.000469948 -0.001 -0.000866 -0.000326786 -0.001 
-0.000866 -0.000196071 -0.001 -0.000866 -6.53571e-05 -0.001 -0.000866 6.53571e-05 -0.001 
-0.000866 0.000196071 -0.001 -0.000866 0.000326786 -0.001 -0.000835948 -0.000469948 -0.001 
-0.000150004 -0.000913393 -0.001 -0.000263202 -0.000848036 -0.001 -0.000376401 -0.000782678 -0.001 
-0.000489599 -0.000717321 -0.001 -0.000602797 -0.000651965 -0.001 -0.000715996 -0.000586607 -0.001 
8.47648e-17 -0.0009575 -0.001 0.000715996 -0.000586607 -0.001 0.000602797 -0.000651965 -0.001 
0.000489599 -0.000717321 -0.001 0.000376401 -0.000782678 -0.001 0.000263202 -0.000848036 -0.001 
0.000150004 -0.000913393 -0.001 0.000829194 -0.00047875 -0.001 0.000866 0.000326786 -0.001 
0.000866 0.000196071 -0.001 0.000866 6.53571e-05 -0.001 0.000866 -6.53571e-05 -0.001 
0.000866 -0.000196071 -0.001 0.000866 -0.000326786 -0.001 0.000829194 0.00047875 -0.001 
0.000150004 0.000913393 -0.001 0.000263202 0.000848036 -0.001 0.000376401 0.000782678 -0.001 
0.000489599 0.000717321 -0.001 0.000602797 0.000651965 -0.001 0.000715996 0.000586607 -0.001 
5.29966e-05 6.64557e-05 -0.001 -1.89143e-05 8.28689e-05 -0.001 -7.65824e-05 3.68801e-05 -0.001 
-7.65824e-05 -3.68801e-05 -0.001 -1.89143e-05 -8.28689e-05 -0.001 5.29966e-05 -6.64557e-05 -0.001 
0.000131234 6.38474e-05 0 0.00012964 -6.2443e-05 0 3.13827e-05 0.0001394 0 
3.12554e-05 -0.000136939 0 -0.000140461 8.25467e-19 0 -8.90565e-05 -0.000102707 0 
-9.04142e-05 0.000102872 0 -0.000765769 -0.00025965 0 -0.000756873 0.000262774 0 
-0.00015609 0.000787505 0 -0.000155807 -0.00079355 0 0.000605069 0.000528035 0 
0.000608694 -0.00052497 0 0.000744069 0.000116929 0 -0.000494418 0.000596218 0 
-0.000483866 -0.000584648 0 0.000269496 0.000702219 0 0.000263201 -0.000717324 0 
0.000754429 -0.000127825 0 -0.000748858 5.84659e-07 0 -0.000747838 0.000373886 0 
-0.0006542 0.000324842 0 -0.000645137 0.000210123 0 -0.000550884 0.000274171 0 
-0.000538857 0.000163195 0 -0.00045062 0.000224461 0 -0.000438393 0.000123907 0 
-0.000354088 0.000181668 0 -0.000363908 0.000282171 0 -0.000270361 0.000239477 0 
-0.000279138 0.000337653 0 -0.000188888 0.000294791 0 -0.000196448 0.000393271 0 
-0.000104767 0.000348259 0 -0.000113332 0.000449012 0 -2.01066e-05 0.000403223 0 
-2.89189e-05 0.000507105 0 6.9524e-05 0.000461596 0 -0.000213644 0.000490203 0 
7.33757e-05 0.000357726 0 0.000163331 0.00041299 0 0.000163359 0.000313022 0 
0.000248077 0.000366368 0 0.000250914 0.000265758 0 0.000335709 0.000322266 0 
0.000340555 0.000218148 0 0.000427299 0.000276717 0 0.000431508 0.000173093 0 
0.000328731 0.000425633 0 0.00034586 0.000114823 0 0.000435362 7.05241e-05 0 
0.000350892 1.5455e-05 0 0.000441547 -3.11896e-05 0 0.000353547 -8.47783e-05 0 
0.000445767 -0.000132964 0 0.000356135 -0.000186358 0 0.000449094 -0.000234674 0 
0.000359978 -0.000287876 0 0.00026856 -0.000240545 0 0.000271895 -0.000341045 0 
0.000181792 -0.00029305 0 0.00018533 -0.000392851 0 9.75701e-05 -0.00034483 0 
9.98764e-05 -0.000444884 0 8.75116e-06 -0.000396343 0 1.20916e-05 -0.000500496 0 
-7.83929e-05 -0.000449843 0 -8.1471e-05 -0.000347249 0 -0.000171566 -0.000403733 0 
-0.000169889 -0.000298891 0 -0.000259867 -0.000354132 0 -0.000257696 -0.000249137 0 
-0.00034313 -0.000299896 0 -0.000344514 -0.000199127 0 -0.000434309 -0.000250039 0 
-0.000169832 -0.000505815 0 -0.000435227 -0.000146227 0 0.000280331 -0.000442424 0 
-0.000340889 8.76793e-05 0 -0.000515252 4.06198e-05 0 6.50491e-05 0.000568253 0 
0.00053278 1.74743e-05 0 0.000522071 0.000229831 0 -0.00037162 0.000391659 0 
-0.000255272 -0.000150439 0 -0.000442893 -0.000350705 0 0.000450067 -0.000332559 0 
0.000545175 -0.000276306 0 -0.000527797 -0.000197598 0 0.000105306 -0.000551033 0 
1.45836e-05 -0.000609147 0 0.00017145 0.000214453 0 0.000515525 0.000341711 0 
0.000636086 0.000290368 0 -0.000558657 0.000404468 0 -4.01232e-05 0.000616718 0 
6.60192e-05 0.000696422 0 -0.000101806 0.0002546 0 0.000271142 -3.88908e-05 0 
0.000179455 -0.00018534 0 -8.79553e-05 -0.000254307 0 -0.000749267 -0.000373451 0 
-0.000655941 -0.000323397 0 0.000709746 0.000466718 0 0.000698426 -0.000473086 0 
-5.25801e-05 -0.00084886 0 -4.93005e-05 0.000848038 0 0.000617396 -0.000413362 0 
0.000702056 -0.000369817 0 0.000131459 -0.000679171 0 2.48171e-05 -0.000715924 0 
-0.000664217 -0.00042729 0 -0.000528828 -8.80444e-05 0 -0.000611101 -0.000136672 0 
-0.000426972 -4.45841e-05 0 0.000800669 0.000378216 0 0.000821144 -0.000415062 0 
7.2799e-05 0.00088254 0 6.81831e-05 -0.00087503 0 0.000104963 -0.000788946 0 
-7.40696e-05 -0.000660054 0 0.000126061 0.000809943 0 0.000764361 0.000295682 0 
0.000166862 0.000630623 0 0.000516462 -0.00046707 0 -0.000563585 -0.000389606 0 
-0.000622598 -1.40238e-05 0 0.000629891 0.000171529 0 2.5614e-06 -0.000299794 0 
8.6901e-05 -0.00024329 0 0.000272045 -0.000136982 0 -0.00075148 0.000138321 0 
0.000209366 -0.000599589 0 0.000324913 -0.000630055 0 0.000614044 0.00041245 0 
0.00049651 -0.000573327 0 0.000394822 -0.000507321 0 -0.000173714 -0.000206698 0 
0.000264897 5.63722e-05 0 0.000247997 0.000152811 0 -4.63327e-05 -0.000920208 0 
9.18688e-05 0.000258626 0 -5.54111e-06 0.000290558 0 -0.000184219 0.000201484 0 
-0.000263559 0.000142267 0 -0.000256427 5.13624e-05 0 -0.000336894 -2.06179e-06 0 
-0.000228499 -4.2388e-05 0 -0.00017589 0.000106626 0 -0.000769947 -0.000133367 0 
0.000767591 -0.000500293 0 -5.05874e-05 0.000737978 0 0.000754456 -3.51771e-06 0 
0.00064691 -6.15298e-05 0 0.000630483 -0.00018134 0 0.000749187 -0.000265543 0 
-0.000760805 -0.000462521 0 0.000638155 6.09315e-05 0 -4.46661e-05 0.000922995 0 
-2.37945e-05 0.000207237 0 0.000776979 0.000500181 0 -0.000605691 0.000527596 0 
-0.000377914 -0.000653727 0 -0.000372325 -0.000526022 0 -0.000275829 -0.000589621 0 
-0.000254285 -0.000710579 0 -0.000379307 0.000656222 0 -0.000379818 0.00052718 0 
-0.000266817 0.000721555 0 -0.000150544 0.000668174 0 0.000381963 0.00065079 0 
0.000493113 0.000590432 0 0.000505439 0.000463708 0 -0.000269094 0.000596608 0 
0.000385815 0.000532045 0 0.000283599 0.0005899 0 -0.000176405 -0.000108505 0 
-0.000278769 -0.000475415 0 0.000185395 2.33014e-06 0 0.000186773 0.000517571 0 
0.000540032 -8.68444e-05 0 -0.000600694 -0.000514877 0 -0.00063703 8.98033e-05 0 
-0.000459677 0.000335729 0 -0.000338836 -0.000100751 0 -0.000457327 0.000432721 0 
-8.72007e-06 -0.000210238 0 0.000156073 0.000129496 0 -7.70692e-05 -0.000555049 0 
0.00036091 -0.000389728 0 0.000531628 0.000120564 0 -0.000285451 0.000435562 0 
0.000192719 -0.000494604 0 0.00041642 0.00039368 0 -0.000135943 0.000554637 0 
-0.000170665 -0.000610079 0 -0.000666304 0.000434981 0 -0.000758736 0.000479231 0 
-0.000470189 -0.000458901 0 0.000203433 -8.59809e-05 0 0.000101846 0.000170114 0 
-0.00035513 -0.00040726 0 0.000100184 -0.000165831 0 2.96286e-05 0.00081537 0 
0.000720946 0.000381836 0 -0.000539809 -0.000292001 0 0.00052211 -0.000182426 0 
-6.41339e-05 -0.000753908 0 0.000638039 -0.000299861 0 -0.000605136 -0.000230182 0 
-3.41638e-05 -0.000145561 0 -0.000104037 0.000172396 0 -0.000808575 -0.00042774 0 
-0.000807207 -0.000465052 0 -0.00080817 0.000429771 0 -0.000806589 0.000469738 0 
-9.50634e-05 -0.000178909 0 0.000247777 0.000445058 0 1.48293e-05 -0.000814201 0 
-4.11555e-05 0.000140955 0 0.000276104 -0.000536845 0 0.000765969 -0.000436638 0 
0.000780871 -0.000362769 0 0.000424176 -0.000642018 0 0.00053413 -0.000368009 0 
-0.000416333 4.17911e-05 0 -0.000133891 -6.23822e-05 0 4.2574e-05 0.000206312 0 
[...]
POINT_DATA 626
VECTORS displacement float
-1.7439e-06 3.09639e-05 1.80594e-05
1.73557e-06 3.0983e-05 1.81045e-05
-2.59946e-05 1.69975e-05 1.80914e-05
-2.58491e-05 1.60377e-05 1.8056e-05
-2.77289e-05 1.39776e-05 1.80735e-05
-2.77218e-05 -1.40239e-05 1.80989e-05
-2.58202e-05 -1.60758e-05 1.81102e-05
-2.59907e-05 -1.70156e-05 1.81714e-05
-1.67737e-06 -3.09677e-05 1.80558e-05
1.75538e-06 -3.09692e-05 1.81063e-05
2.59519e-05 -1.69854e-05 1.80479e-05
2.77252e-05 -1.39415e-05 1.80478e-05
2.76807e-05 1.39942e-05 1.8096e-05
2.59232e-05 1.69977e-05 1.80504e-05
0 0 0
-1.7439e-06 3.09639e-05 -1.80594e-05
1.73557e-06 3.0983e-05 -1.81045e-05
-2.59946e-05 1.69975e-05 -1.80914e-05
-2.58491e-05 1.60377e-05 -1.8056e-05
-2.77289e-05 1.39776e-05 -1.80735e-05
-2.77218e-05 -1.40239e-05 -1.80989e-05
-2.58202e-05 -1.60758e-05 -1.81102e-05
-2.59907e-05 -1.70156e-05 -1.81714e-05
-1.67737e-06 -3.09677e-05 -1.80558e-05
1.75538e-06 -3.09692e-05 -1.81063e-05
2.59519e-05 -1.69854e-05 -1.80479e-05
2.77252e-05 -1.39415e-05 -1.80478e-05
2.76807e-05 1.39942e-05 -1.8096e-05
2.59232e-05 1.69977e-05 -1.80504e-05
0 0 0
2.4854e-08 3.01637e-05 1.80386e-05
-2.11486e-05 1.8718e-05 1.75546e-05
-1.72395e-05 1.98407e-05 1.69262e-05
-1.40126e-05 2.10622e-05 1.65606e-05
-1.1211e-05 2.26737e-05 1.65545e-05
-8.52658e-06 2.48424e-05 1.69068e-05
-5.56875e-06 2.76315e-05 1.75423e-05
-2.64579e-05 1.46838e-05 1.80379e-05
-2.67776e-05 -9.0156e-06 1.75822e-05
-2.58157e-05 -5.0381e-06 1.69313e-05
-2.52642e-05 -1.63711e-06 1.65771e-05
-2.52672e-05 1.60873e-06 1.658e-05
-2.58079e-05 5.02547e-06 1.69296e-05
-2.67638e-05 8.98866e-06 1.75688e-05
-2.64448e-05 -1.47301e-05 1.80666e-05
-5.542e-06 -2.76459e-05 1.75345e-05
-8.47911e-06 -2.48514e-05 1.69061e-05
-1.11742e-05 -2.26932e-05 1.65618e-05
-1.39763e-05 -2.10952e-05 1.65652e-05
-1.7222e-05 -1.9876e-05 1.6942e-05
-2.11422e-05 -1.87548e-05 1.75671e-05
8.97864e-08 -3.01485e-05 1.80338e-05
2.1132e-05 -1.86305e-05 1.75163e-05
1.72517e-05 -1.97691e-05 1.68783e-05
1.40395e-05 -2.10192e-05 1.65173e-05
1.12292e-05 -2.26019e-05 1.65519e-05
8.58369e-06 -2.47896e-05 1.68796e-05
5.65555e-06 -2.76362e-05 1.75399e-05
2.61327e-05 -1.50644e-05 1.80328e-05
2.67257e-05 8.94252e-06 1.75064e-05
2.57315e-05 5.05222e-06 1.69138e-05
2.52163e-05 1.62423e-06 1.65289e-05
2.52135e-05 -1.60032e-06 1.65272e-05
2.57602e-05 -5e-06 1.68937e-05
2.67078e-05 -8.92125e-06 1.75146e-05
2.61157e-05 1.50655e-05 1.80298e-05
5.63399e-06 2.76275e-05 1.75144e-05
8.51108e-06 2.48163e-05 1.69166e-05
1.12212e-05 2.265e-05 1.65351e-05
1.40101e-05 2.10302e-05 1.65304e-05
1.72287e-05 1.98004e-05 1.68905e-05
2.1123e-05 1.86401e-05 1.75303e-05
0 0 0
0 0 0
0 0 0
0 0 0
0 0 0
0 0 0
2.4854e-08 3.01637e-05 -1.80386e-05
-2.11486e-05 1.8718e-05 -1.75546e-05
-1.72395e-05 1.98407e-05 -1.69262e-05
-1.40126e-05 2.10622e-05 -1.65606e-05
-1.1211e-05 2.26737e-05 -1.65545e-05
-8.52658e-06 2.48424e-05 -1.69068e-05
-5.56875e-06 2.76315e-05 -1.75423e-05
-2.64579e-05 1.46838e-05 -1.80379e-05
-2.67776e-05 -9.0156e-06 -1.75822e-05
-2.58157e-05 -5.0381e-06 -1.69313e-05
-2.52642e-05 -1.63711e-06 -1.65771e-05
-2.52672e-05 1.60873e-06 -1.658e-05
-2.58079e-05 5.02547e-06 -1.69296e-05
-2.67638e-05 8.98866e-06 -1.75688e-05
-2.64448e-05 -1.47301e-05 -1.80666e-05
-5.542e-06 -2.76459e-05 -1.75345e-05
-8.47911e-06 -2.48514e-05 -1.69061e-05
-1.11742e-05 -2.26932e-05 -1.65618e-05
-1.39763e-05 -2.10952e-05 -1.65652e-05
-1.7222e-05 -1.9876e-05 -1.6942e-05
-2.11422e-05 -1.87548e-05 -1.75671e-05
8.97864e-08 -3.01485e-05 -1.80338e-05
2.1132e-05 -1.86305e-05 -1.75163e-05
1.72517e-05 -1.97691e-05 -1.68783e-05
1.40395e-05 -2.10192e-05 -1.65173e-05
1.12292e-05 -2.26019e-05 -1.65519e-05
8.58369e-06 -2.47896e-05 -1.68796e-05
5.65555e-06 -2.76362e-05 -1.75399e-05
2.61327e-05 -1.50644e-05 -1.80328e-05
2.67257e-05 8.94252e-06 -1.75064e-05
2.57315e-05 5.05222e-06 -1.69138e-05
2.52163e-05 1.62423e-06 -1.65289e-05
2.52135e-05 -1.60032e-06 -1.65272e-05
2.57602e-05 -5e-06 -1.68937e-05
2.67078e-05 -8.92125e-06 -1.75146e-05
2.61157e-05 1.50655e-05 -1.80298e-05
5.63399e-06 2.76275e-05 -1.75144e-05
8.51108e-06 2.48163e-05 -1.69166e-05
1.12212e-05 2.265e-05 -1.65351e-05
1.40101e-05 2.10302e-05 -1.65304e-05
1.72287e-05 1.98004e-05 -1.68905e-05
2.1123e-05 1.86401e-05 -1.75303e-05
0 0 0
0 0 0
0 0 0
0 0 0
0 0 0
0 0 0
1.7942e-06 8.58993e-07 4.55399e-06
1.73832e-06 -8.25351e-07 4.46251e-06
4.32077e-07 1.85015e-06 4.49683e-06
4.36222e-07 -1.78113e-06 4.35775e-06
-1.84801e-06 2.0971e-08 4.42404e-06
-1.12341e-06 -1.30924e-06 4.15258e-06
-1.15954e-06 1.30717e-06 4.20138e-06
-2.25212e-05 -7.29071e-06 1.70051e-05
-2.22045e-05 7.3746e-06 1.69738e-05
-4.86192e-06 2.2907e-05 1.69423e-05
-4.85941e-06 -2.31402e-05 1.69691e-05
1.74279e-05 1.5641e-05 1.69351e-05
1.75755e-05 -1.55419e-05 1.69443e-05
2.10817e-05 3.16528e-06 1.633e-05
-1.39587e-05 1.71577e-05 1.64839e-05
-1.35966e-05 -1.67476e-05 1.64155e-05
7.77069e-06 1.98273e-05 1.63368e-05
7.68762e-06 -2.03179e-05 1.64081e-05
2.14806e-05 -3.44527e-06 1.64058e-05
-2.1111e-05 6.58838e-09 1.62523e-05
-2.24282e-05 1.10038e-05 1.74584e-05
-1.87579e-05 9.25818e-06 1.66323e-05
-1.79896e-05 5.79774e-06 1.60417e-05
-1.49897e-05 7.45119e-06 1.54918e-05
-1.423e-05 4.3094e-06 1.48351e-05
-1.1537e-05 5.74609e-06 1.41e-05
-1.08622e-05 3.0699e-06 1.33786e-05
-8.40365e-06 4.30649e-06 1.24091e-05
-9.06228e-06 7.01609e-06 1.34614e-05
-6.20641e-06 5.49055e-06 1.16935e-05
-6.83092e-06 8.25259e-06 1.30849e-05
-4.28299e-06 6.67738e-06 1.14549e-05
-4.80186e-06 9.61361e-06 1.30989e-05
-2.40178e-06 7.99632e-06 1.17275e-05
-2.81395e-06 1.11715e-05 1.348e-05
-4.756e-07 9.59892e-06 1.25058e-05
-7.38652e-07 1.30019e-05 1.4147e-05
1.73173e-06 1.15222e-05 1.35401e-05
-5.53686e-06 1.27053e-05 1.44423e-05
1.6857e-06 8.22704e-06 1.17521e-05
4.00571e-06 1.01248e-05 1.3156e-05
3.70672e-06 7.10059e-06 1.14827e-05
6.06973e-06 8.97012e-06 1.31184e-05
5.76897e-06 6.10907e-06 1.17401e-05
8.36129e-06 8.02342e-06 1.34972e-05
8.10871e-06 5.19724e-06 1.25052e-05
1.09582e-05 7.0998e-06 1.41522e-05
1.07501e-05 4.32446e-06 1.35042e-05
8.53385e-06 1.10418e-05 1.44662e-05
7.94065e-06 2.64473e-06 1.1732e-05
1.06501e-05 1.73787e-06 1.31091e-05
7.95164e-06 3.58894e-07 1.146e-05
1.08106e-05 -7.59404e-07 1.31292e-05
8.11467e-06 -1.93852e-06 1.17137e-05
1.11025e-05 -3.31413e-06 1.3489e-05
8.47294e-06 -4.42566e-06 1.24489e-05
1.15081e-05 -6.00521e-06 1.41146e-05
8.95901e-06 -7.14086e-06 1.34332e-05
6.14981e-06 -5.49647e-06 1.16458e-05
6.64704e-06 -8.30405e-06 1.30233e-05
4.10672e-06 -6.59095e-06 1.13153e-05
4.52508e-06 -9.55454e-06 1.29933e-05
2.24312e-06 -7.86121e-06 1.16019e-05
2.48578e-06 -1.10061e-05 1.3356e-05
2.25366e-07 -9.37723e-06 1.23584e-05
3.30125e-07 -1.27747e-05 1.40391e-05
-1.91619e-06 -1.1155e-05 1.33821e-05
-1.84176e-06 -7.92456e-06 1.15867e-05
-4.16951e-06 -9.87864e-06 1.30901e-05
-3.81536e-06 -6.73299e-06 1.13215e-05
-6.34807e-06 -8.66534e-06 1.31044e-05
-5.8935e-06 -5.70013e-06 1.16329e-05
-8.503e-06 -7.43865e-06 1.33848e-05
-8.17063e-06 -4.72984e-06 1.24134e-05
-1.10999e-05 -6.40523e-06 1.40751e-05
-4.37337e-06 -1.31283e-05 1.4439e-05
-1.0813e-05 -3.65208e-06 1.34443e-05
7.22894e-06 -1.13772e-05 1.42784e-05
-7.74458e-06 1.98342e-06 1.14974e-05
-1.32213e-05 1.03546e-06 1.42163e-05
1.72976e-06 1.50887e-05 1.49576e-05
1.37735e-05 4.62425e-07 1.43932e-05
1.38485e-05 6.10249e-06 1.49371e-05
-9.69786e-06 1.02002e-05 1.45379e-05
-5.41796e-06 -3.1988e-06 1.01861e-05
-1.17182e-05 -9.30092e-06 1.48946e-05
1.1887e-05 -8.76362e-06 1.47926e-05
1.47875e-05 -7.47651e-06 1.54088e-05
-1.39651e-05 -5.24593e-06 1.48671e-05
2.79688e-06 -1.45218e-05 1.48017e-05
4.24696e-07 -1.65058e-05 1.54032e-05
3.51968e-06 4.3985e-06 9.58492e-06
1.4016e-05 9.30265e-06 1.54971e-05
1.79376e-05 8.14813e-06 1.63059e-05
-1.56815e-05 1.13996e-05 1.62389e-05
-1.09451e-06 1.67756e-05 1.55008e-05
1.9075e-06 1.96291e-05 1.63163e-05
-2.09262e-06 5.22193e-06 9.60141e-06
5.55591e-06 -7.84882e-07 9.59797e-06
3.5872e-06 -3.68485e-06 9.08559e-06
-1.78027e-06 -5.1804e-06 9.45336e-06
-2.24766e-05 -1.10149e-05 1.74792e-05
-1.88052e-05 -9.24492e-06 1.66563e-05
2.11554e-05 1.41696e-05 1.75104e-05
2.07613e-05 -1.43225e-05 1.74404e-05
-1.76501e-06 -2.54555e-05 1.75158e-05
-1.68252e-06 2.54195e-05 1.75204e-05
1.77197e-05 -1.19113e-05 1.66924e-05
2.06532e-05 -1.07551e-05 1.7121e-05
3.77697e-06 -1.89925e-05 1.61449e-05
7.68749e-07 -2.03535e-05 1.64882e-05
-1.94122e-05 -1.2655e-05 1.71482e-05
-1.37365e-05 -2.30783e-06 1.44773e-05
-1.65992e-05 -3.70291e-06 1.54831e-05
-1.03798e-05 -1.09681e-06 1.29571e-05
2.44603e-05 1.1077e-05 1.76564e-05
2.55058e-05 -1.24077e-05 1.78527e-05
2.64968e-06 2.67353e-05 1.76652e-05
2.52141e-06 -2.64228e-05 1.76341e-05
3.34039e-06 -2.30404e-05 1.70343e-05
-2.05466e-06 -1.83269e-05 1.59563e-05
4.06015e-06 2.38001e-05 1.71355e-05
2.26223e-05 8.38268e-06 1.71244e-05
4.61531e-06 1.73201e-05 1.57328e-05
1.44326e-05 -1.31244e-05 1.61429e-05
-1.57937e-05 -1.09888e-05 1.62199e-05
-1.68064e-05 -3.81589e-07 1.5383e-05
1.73126e-05 4.68937e-06 1.57312e-05
6.55394e-08 -6.38961e-06 1.02715e-05
1.74231e-06 -4.85015e-06 9.09609e-06
5.85257e-06 -2.93657e-06 1.03823e-05
-2.14524e-05 3.75215e-06 1.64644e-05
5.73154e-06 -1.62809e-05 1.55133e-05
9.08698e-06 -1.75059e-05 1.60032e-05
1.75787e-05 1.1886e-05 1.66775e-05
1.39998e-05 -1.63885e-05 1.64068e-05
1.07442e-05 -1.37944e-05 1.55558e-05
-3.54922e-06 -4.22167e-06 9.50453e-06
5.40101e-06 1.1389e-06 9.50282e-06
5.21991e-06 3.22403e-06 1.00512e-05
-1.75002e-06 -2.83638e-05 1.78814e-05
1.89272e-06 5.30076e-06 9.58825e-06
-1.13869e-07 6.10718e-06 1.00427e-05
-3.78625e-06 4.12919e-06 9.5822e-06
-5.62469e-06 3.03527e-06 1.02893e-05
-5.16727e-06 1.04104e-06 9.21725e-06
-7.53e-06 -6.17628e-08 1.11768e-05
-4.33583e-06 -8.10547e-07 8.38515e-06
-3.1096e-06 1.87294e-06 7.37694e-06
-2.20896e-05 -3.60938e-06 1.65214e-05
2.34142e-05 -1.56928e-05 1.78407e-05
-1.5077e-06 2.11758e-05 1.66873e-05
2.127e-05 -8.45576e-08 1.62315e-05
1.7629e-05 -1.64747e-06 1.55871e-05
1.73544e-05 -4.94364e-06 1.57762e-05
2.18995e-05 -7.45416e-06 1.69188e-05
-2.319e-05 -1.42592e-05 1.78372e-05
1.73314e-05 1.64955e-06 1.55142e-05
-1.73422e-06 2.84824e-05 1.78986e-05
-4.22211e-07 3.68462e-06 7.49823e-06
2.37799e-05 1.57472e-05 1.78891e-05
-1.7504e-05 1.56477e-05 1.69801e-05
-1.06304e-05 -1.84733e-05 1.62608e-05
-1.01035e-05 -1.43479e-05 1.55773e-05
-7.51071e-06 -1.61011e-05 1.56277e-05
-7.32481e-06 -2.01283e-05 1.64009e-05
-1.07087e-05 1.85424e-05 1.62725e-05
-1.03514e-05 1.43897e-05 1.5625e-05
-7.77546e-06 2.05004e-05 1.64498e-05
-4.25455e-06 1.86168e-05 1.60585e-05
1.07639e-05 1.83526e-05 1.62319e-05
1.38972e-05 1.69413e-05 1.64366e-05
1.40474e-05 1.29778e-05 1.60568e-05
-7.36445e-06 1.62947e-05 1.56442e-05
1.05293e-05 1.45527e-05 1.56509e-05
7.75175e-06 1.60986e-05 1.56196e-05
-3.11748e-06 -1.89938e-06 7.39607e-06
-7.2605e-06 -1.24268e-05 1.46307e-05
3.00961e-06 4.03734e-08 6.60355e-06
4.87446e-06 1.3528e-05 1.46236e-05
1.40815e-05 -2.26128e-06 1.4576e-05
-1.72964e-05 -1.52221e-05 1.69507e-05
-1.73732e-05 2.42128e-06 1.56034e-05
-1.22094e-05 8.91536e-06 1.49489e-05
-7.70849e-06 -2.29336e-06 1.15592e-05
-1.24546e-05 1.18172e-05 1.55455e-05
-1.42785e-07 -3.75546e-06 7.55715e-06
2.73112e-06 2.27282e-06 7.25478e-06
-2.00465e-06 -1.46562e-05 1.48135e-05
9.36874e-06 -1.00722e-05 1.43949e-05
1.38661e-05 3.15906e-06 1.45716e-05
-7.34292e-06 1.12037e-05 1.42657e-05
4.99916e-06 -1.27798e-05 1.43748e-05
1.10362e-05 1.04346e-05 1.49252e-05
-3.59785e-06 1.4691e-05 1.49136e-05
-4.63725e-06 -1.66233e-05 1.55544e-05
-1.95142e-05 1.2897e-05 1.71663e-05
-2.31348e-05 1.48629e-05 1.7848e-05
-1.291e-05 -1.26909e-05 1.58181e-05
3.76205e-06 -1.58665e-06 7.91008e-06
1.76496e-06 2.92323e-06 7.08722e-06
-9.23411e-06 -1.06136e-05 1.45373e-05
1.7283e-06 -2.82407e-06 6.93379e-06
9.94949e-07 2.41256e-05 1.73135e-05
2.13756e-05 1.1198e-05 1.73036e-05
-1.46703e-05 -7.95644e-06 1.54908e-05
1.37134e-05 -4.7882e-06 1.46961e-05
-1.91051e-06 -2.17711e-05 1.6808e-05
1.80672e-05 -8.42233e-06 1.63461e-05
-1.66853e-05 -6.33105e-06 1.57879e-05
-4.33032e-07 -1.9229e-06 4.80033e-06
-1.80596e-06 2.99642e-06 7.18e-06
-2.50601e-05 -1.29863e-05 1.79268e-05
-2.51353e-05 -1.45119e-05 1.80066e-05
-2.50533e-05 1.30382e-05 1.79106e-05
-2.51261e-05 1.46546e-05 1.79866e-05
-1.649e-06 -3.12587e-06 7.21275e-06
6.33042e-06 1.13729e-05 1.4082e-05
5.3381e-07 -2.40948e-05 1.73072e-05
-5.22937e-07 1.81008e-06 4.6468e-06
7.41037e-06 -1.43494e-05 1.51581e-05
2.33109e-05 -1.32139e-05 1.77335e-05
2.36408e-05 -1.05416e-05 1.74957e-05
1.19932e-05 -1.82181e-05 1.6299e-05
1.47358e-05 -1.01505e-05 1.58011e-05
-1.00309e-05 1.00163e-06 1.27597e-05
-1.74053e-06 -8.16146e-07 4.72527e-06
7.69317e-07 3.70958e-06 7.57614e-06
2.34382e-06 -1.9978e-06 6.55786e-06
2.01642e-05 5.90027e-06 1.64591e-05
5.07181e-06 2.06039e-05 1.65015e-05
3.42133e-07 -2.76893e-05 1.78586e-05
-1.73175e-06 7.09322e-07 4.6081e-06
-3.21255e-06 6.23247e-07 6.82682e-06
3.5784e-06 1.4759e-06 7.63965e-06
4.99258e-07 2.83332e-05 1.79318e-05
2.47685e-05 1.37387e-05 1.7923e-05
-2.03359e-05 1.5541e-05 1.7434e-05
1.17906e-06 1.36488e-06 4.46158e-06
-2.06472e-05 -1.57335e-05 1.75325e-05
-1.90064e-05 -2.32317e-06 1.59519e-05
-1.95666e-05 -5.58728e-06 1.63378e-05
9.05974e-07 -3.24881e-06 7.00886e-06
-4.36759e-06 -1.97969e-05 1.63274e-05
-7.94044e-06 1.38399e-05 1.51068e-05
1.1661e-06 -1.30457e-06 4.34097e-06
1.19391e-05 -1.12327e-05 1.52978e-05
6.13496e-06 -2.27048e-05 1.68259e-05
-1.45279e-05 1.43608e-05 1.63292e-05
7.93221e-06 1.33265e-05 1.49537e-05
1.7942e-06 8.58993e-07 -4.55399e-06
1.73832e-06 -8.25351e-07 -4.46251e-06
4.32077e-07 1.85015e-06 -4.49683e-06
4.36222e-07 -1.78113e-06 -4.35775e-06
-1.84801e-06 2.0971e-08 -4.42404e-06
-1.12341e-06 -1.30924e-06 -4.15258e-06
-1.15954e-06 1.30717e-06 -4.20138e-06
-2.25212e-05 -7.29071e-06 -1.70051e-05
-2.22045e-05 7.3746e-06 -1.69738e-05
-4.86192e-06 2.2907e-05 -1.69423e-05
-4.85941e-06 -2.31402e-05 -1.69691e-05
1.74279e-05 1.5641e-05 -1.69351e-05
1.75755e-05 -1.55419e-05 -1.69443e-05
2.10817e-05 3.16528e-06 -1.633e-05
-1.39587e-05 1.71577e-05 -1.64839e-05
-1.35966e-05 -1.67476e-05 -1.64155e-05
7.77069e-06 1.98273e-05 -1.63368e-05
7.68762e-06 -2.03179e-05 -1.64081e-05
2.14806e-05 -3.44527e-06 -1.64058e-05
-2.1111e-05 6.58838e-09 -1.62523e-05
-2.24282e-05 1.10038e-05 -1.74584e-05
-1.87579e-05 9.25818e-06 -1.66323e-05
-1.79896e-05 5.79774e-06 -1.60417e-05
-1.49897e-05 7.45119e-06 -1.54918e-05
-1.423e-05 4.3094e-06 -1.48351e-05
-1.1537e-05 5.74609e-06 -1.41e-05
-1.08622e-05 3.0699e-06 -1.33786e-05
-8.40365e-06 4.30649e-06 -1.24091e-05
-9.06228e-06 7.01609e-06 -1.34614e-05
-6.20641e-06 5.49055e-06 -1.16935e-05
-6.83092e-06 8.25259e-06 -1.30849e-05
-4.28299e-06 6.67738e-06 -1.14549e-05
-4.80186e-06 9.61361e-06 -1.30989e-05
-2.40178e-06 7.99632e-06 -1.17275e-05
-2.81395e-06 1.11715e-05 -1.348e-05
-4.756e-07 9.59892e-06 -1.25058e-05
-7.38652e-07 1.30019e-05 -1.4147e-05
1.73173e-06 1.15222e-05 -1.35401e-05
-5.53686e-06 1.27053e-05 -1.44423e-05
1.6857e-06 8.22704e-06 -1.17521e-05
4.00571e-06 1.01248e-05 -1.3156e-05
3.70672e-06 7.10059e-06 -1.14827e-05
6.06973e-06 8.97012e-06 -1.31184e-05
5.76897e-06 6.10907e-06 -1.17401e-05
8.36129e-06 8.02342e-06 -1.34972e-05
8.10871e-06 5.19724e-06 -1.25052e-05
1.09582e-05 7.0998e-06 -1.41522e-05
1.07501e-05 4.32446e-06 -1.35042e-05
8.53385e-06 1.10418e-05 -1.44662e-05
7.94065e-06 2.64473e-06 -1.1732e-05
1.06501e-05 1.73787e-06 -1.31091e-05
7.95164e-06 3.58894e-07 -1.146e-05
1.08106e-05 -7.59404e-07 -1.31292e-05
8.11467e-06 -1.93852e-06 -1.17137e-05
1.11025e-05 -3.31413e-06 -1.3489e-05
8.47294e-06 -4.42566e-06 -1.24489e-05
1.15081e-05 -6.00521e-06 -1.41146e-05
8.95901e-06 -7.14086e-06 -1.34332e-05
6.14981e-06 -5.49647e-06 -1.16458e-05
6.64704e-06 -8.30405e-06 -1.30233e-05
4.10672e-06 -6.59095e-06 -1.13153e-05
4.52508e-06 -9.55454e-06 -1.29933e-05
2.24312e-06 -7.86121e-06 -1.16019e-05
2.48578e-06 -1.10061e-05 -1.3356e-05
2.25366e-07 -9.37723e-06 -1.23584e-05
3.30125e-07 -1.27747e-05 -1.40391e-05
-1.91619e-06 -1.1155e-05 -1.33821e-05
-1.84176e-06 -7.92456e-06 -1.15867e-05
-4.16951e-06 -9.87864e-06 -1.30901e-05
-3.81536e-06 -6.73299e-06 -1.13215e-05
-6.34807e-06 -8.66534e-06 -1.31044e-05
-5.8935e-06 -5.70013e-06 -1.16329e-05
-8.503e-06 -7.43865e-06 -1.33848e-05
-8.17063e-06 -4.72984e-06 -1.24134e-05
-1.10999e-05 -6.40523e-06 -1.40751e-05
-4.37337e-06 -1.31283e-05 -1.4439e-05
-1.0813e-05 -3.65208e-06 -1.34443e-05
7.22894e-06 -1.13772e-05 -1.42784e-05
-7.74458e-06 1.98342e-06 -1.14974e-05
-1.32213e-05 1.03546e-06 -1.42163e-05
1.72976e-06 1.50887e-05 -1.49576e-05
1.37735e-05 4.62425e-07 -1.43932e-05
1.38485e-05 6.10249e-06 -1.49371e-05
-9.69786e-06 1.02002e-05 -1.45379e-05
-5.41796e-06 -3.1988e-06 -1.01861e-05
-1.17182e-05 -9.30092e-06 -1.48946e-05
1.1887e-05 -8.76362e-06 -1.47926e-05
1.47875e-05 -7.47651e-06 -1.54088e-05
-1.39651e-05 -5.24593e-06 -1.48671e-05
2.79688e-06 -1.45218e-05 -1.48017e-05
4.24696e-07 -1.65058e-05 -1.54032e-05
3.51968e-06 4.3985e-06 -9.58492e-06
1.4016e-05 9.30265e-06 -1.54971e-05
1.79376e-05 8.14813e-06 -1.63059e-05
-1.56815e-05 1.13996e-05 -1.62389e-05
-1.09451e-06 1.67756e-05 -1.55008e-05
1.9075e-06 1.96291e-05 -1.63163e-05
-2.09262e-06 5.22193e-06 -9.60141e-06
5.55591e-06 -7.84882e-07 -9.59797e-06
3.5872e-06 -3.68485e-06 -9.08559e-06
-1.78027e-06 -5.1804e-06 -9.45336e-06
-2.24766e-05 -1.10149e-05 -1.74792e-05
-1.88052e-05 -9.24492e-06 -1.66563e-05
2.11554e-05 1.41696e-05 -1.75104e-05
2.07613e-05 -1.43225e-05 -1.74404e-05
-1.76501e-06 -2.54555e-05 -1.75158e-05
-1.68252e-06 2.54195e-05 -1.75204e-05
1.77197e-05 -1.19113e-05 -1.66924e-05
2.06532e-05 -1.07551e-05 -1.7121e-05
3.77697e-06 -1.89925e-05 -1.61449e-05
7.68749e-07 -2.03535e-05 -1.64882e-05
-1.94122e-05 -1.2655e-05 -1.71482e-05
-1.37365e-05 -2.30783e-06 -1.44773e-05
-1.65992e-05 -3.70291e-06 -1.54831e-05
-1.03798e-05 -1.09681e-06 -1.29571e-05
2.44603e-05 1.1077e-05 -1.76564e-05
2.55058e-05 -1.24077e-05 -1.78527e-05
2.64968e-06 2.67353e-05 -1.76652e-05
2.52141e-06 -2.64228e-05 -1.76341e-05
3.34039e-06 -2.30404e-05 -1.70343e-05
-2.05466e-06 -1.83269e-05 -1.59563e-05
4.06015e-06 2.38001e-05 -1.71355e-05
2.26223e-05 8.38268e-06 -1.71244e-05
4.61531e-06 1.73201e-05 -1.57328e-05
1.44326e-05 -1.31244e-05 -1.61429e-05
-1.57937e-05 -1.09888e-05 -1.62199e-05
-1.68064e-05 -3.81589e-07 -1.5383e-05
1.73126e-05 4.68937e-06 -1.57312e-05
6.55394e-08 -6.38961e-06 -1.02715e-05
1.74231e-06 -4.85015e-06 -9.09609e-06
5.85257e-06 -2.93657e-06 -1.03823e-05
-2.14524e-05 3.75215e-06 -1.64644e-05
5.73154e-06 -1.62809e-05 -1.55133e-05
9.08698e-06 -1.75059e-05 -1.60032e-05
1.75787e-05 1.1886e-05 -1.66775e-05
1.39998e-05 -1.63885e-05 -1.64068e-05
1.07442e-05 -1.37944e-05 -1.55558e-05
-3.54922e-06 -4.22167e-06 -9.50453e-06
5.40101e-06 1.1389e-06 -9.50282e-06
5.21991e-06 3.22403e-06 -1.00512e-05
-1.75002e-06 -2.83638e-05 -1.78814e-05
1.89272e-06 5.30076e-06 -9.58825e-06
-1.13869e-07 6.10718e-06 -1.00427e-05
-3.78625e-06 4.12919e-06 -9.5822e-06
-5.62469e-06 3.03527e-06 -1.02893e-05
-5.16727e-06 1.04104e-06 -9.21725e-06
-7.53e-06 -6.17628e-08 -1.11768e-05
-4.33583e-06 -8.10547e-07 -8.38515e-06
-3.1096e-06 1.87294e-06 -7.37694e-06
-2.20896e-05 -3.60938e-06 -1.65214e-05
2.34142e-05 -1.56928e-05 -1.78407e-05
-1.5077e-06 2.11758e-05 -1.66873e-05
2.127e-05 -8.45576e-08 -1.62315e-05
1.7629e-05 -1.64747e-06 -1.55871e-05
1.73544e-05 -4.94364e-06 -1.57762e-05
2.18995e-05 -7.45416e-06 -1.69188e-05
-2.319e-05 -1.42592e-05 -1.78372e-05
1.73314e-05 1.64955e-06 -1.55142e-05
-1.73422e-06 2.84824e-05 -1.78986e-05
-4.22211e-07 3.68462e-06 -7.49823e-06