# vtk DataFile Version 3.0
vtk output at time 230
ASCII
DATASET UNSTRUCTURED_GRID
POINTS 626 float
-3.68058e-05 0.000978749 0 3.68058e-05 0.000978749 0 -0.000829194 0.00052125 0 
-0.0008235 0.0005 0 -0.000866 0.0004575 0 -0.000866 -0.0004575 0 
-0.0008235 -0.0005 0 -0.000829194 -0.00052125 0 -3.68058e-05 -0.000978749 0 
3.68058e-05 -0.000978749 0 0.000829194 -0.00052125 0 0.000866 -0.0004575 0 
0.000866 0.0004575 0 0.000829194 0.00052125 0 8.5e-05 0 0 
-3.68058e-05 0.000978749 -0.001 3.68058e-05 0.000978749 -0.001 -0.000829194 0.00052125 -0.001 
-0.0008235 0.0005 -0.001 -0.000866 0.0004575 -0.001 -0.000866 -0.0004575 -0.001 
-0.0008235 -0.0005 -0.001 -0.000829194 -0.00052125 -0.001 -3.68058e-05 -0.000978749 -0.001 
3.68058e-05 -0.000978749 -0.001 0.000829194 -0.00052125 -0.001 0.000866 -0.0004575 -0.001 
0.000866 0.0004575 -0.001 0.000829194 0.00052125 -0.001 8.5e-05 0 -0.001 
8.46223e-17 0.0009575 0 -0.000715996 0.000586607 0 -0.000602797 0.000651965 0 
-0.000489599 0.000717321 0 -0.000376401 0.000782678 0 -0.000263202 0.000848036 0 
-0.000150004 0.000913393 0 -0.000835948 0.000469948 0 -0.000866 -0.000326786 0 
-0.000866 -0.000196071 0 -0.000866 -6.53571e-05 0 -0.000866 6.53571e-05 0 
-0.000866 0.000196071 0 -0.000866 0.000326786 0 -0.000835948 -0.000469948 0 
-0.000150004 -0.000913393 0 -0.000263202 -0.000848036 0 -0.000376401 -0.000782678 0 
-0.000489599 -0.000717321 0 -0.000602797 -0.000651965 0 -0.000715996 -0.000586607 0 
8.47648e-17 -0.0009575 0 0.000715996 -0.000586607 0 0.000602797 -0.000651965 0 
0.000489599 -0.000717321 0 0.000376401 -0.000782678 0 0.000263202 -0.000848036 0 
0.000150004 -0.000913393 0 0.000829194 -0.00047875 0 0.000866 0.000326786 0 
0.000866 0.000196071 0 0.000866 6.53571e-05 0 0.000866 -6.53571e-05 0 
0.000866 -0.000196071 0 0.000866 -0.000326786 0 0.000829194 0.00047875 0 
0.000150004 0.000913393 0 0.000263202 0.000848036 0 0.000376401 0.000782678 0 
0.000489599 0.000717321 0 0.000602797 0.000651965 0 0.000715996 0.000586607 0 
5.29966e-05 6.64557e-05 0 -1.89143e-05 8.28689e-05 0 -7.65824e-05 3.68801e-05 0 
-7.65824e-05 -3.68801e-05 0 -1.89143e-05 -8.28689e-05 0 5.29966e-05 -6.64557e-05 0 
8.46223e-17 0.0009575 -0.001 -0.000715996 0.000586607 -0.001 -0.000602797 0.000651965 -0.001 
-0.000489599 0.000717321 -0.001 -0.000376401 0.000782678 -0.001 -0.000263202 0.000848036 -0.001 
-0.000150004 0.000913393 -0.001 -0.000835948 0.000469948 -0.001 -0.000866 -0.000326786 -0.001 
-0.000866 -0.000196071 -0.001 -0.000866 -6.53571e-05 -0.001 -0.000866 6.53571e-05 -0.001 
-0.000866 0.000196071 -0.001 -0.000866 0.000326786 -0.001 -0.000835948 -0.000469948 -0.001 
-0.000150004 -0.000913393 -0.001 -0.000263202 -0.000848036 -0.001 -0.000376401 -0.000782678 -0.001 
-0.000489599 -0.000717321 -0.001 -0.000602797 -0.000651965 -0.001 -0.000715996 -0.000586607 -0.001 
8.47648e-17 -0.0009575 -0.001 0.000715996 -0.000586607 -0.001 0.000602797 -0.000651965 -0.001 
0.000489599 -0.000717321 -0.001 0.000376401 -0.000782678 -0.001 0.000263202 -0.000848036 -0.001 
0.000150004 -0.000913393 -0.001 0.000829194 -0.00047875 -0.001 0.000866 0.000326786 -0.001 
0.000866 0.000196071 -0.001 0.000866 6.53571e-05 -0.001 0.000866 -6.53571e-05 -0.001 
0.000866 -0.000196071 -0.001 0.000866 -0.000326786 -0.001 0.000829194 0.00047875 -0.001 
0.000150004 0.000913393 -0.001 0.000263202 0.000848036 -0.001 0.000376401 0.000782678 -0.001 
0.000489599 0.000717321 -0.001 0.000602797 0.000651965 -0.001 0.000715996 0.000586607 -0.001 
5.29966e-05 6.64557e-05 -0.001 -1.89143e-05 8.28689e-05 -0.001 -7.65824e-05 3.68801e-05 -0.001 
-7.65824e-05 -3.68801e-05 -0.001 -1.89143e-05 -8.28689e-05 -0.001 5.29966e-05 -6.64557e-05 -0.001 
0.000131234 6.38474e-05 0 0.00012964 -6.2443e-05 0 3.13827e-05 0.0001394 0 
3.12554e-05 -0.000136939 0 -0.000140461 8.25467e-19 0 -8.90565e-05 -0.000102707 0 
-9.04142e-05 0.000102872 0 -0.000765769 -0.00025965 0 -0.000756873 0.000262774 0 
-0.00015609 0.000787505 0 -0.000155807 -0.00079355 0 0.000605069 0.000528035 0 
0.000608694 -0.00052497 0 0.000744069 0.000116929 0 -0.000494418 0.000596218 0 
-0.000483866 -0.000584648 0 0.000269496 0.000702219 0 0.000263201 -0.000717324 0 
0.000754429 -0.000127825 0 -0.000748858 5.84659e-07 0 -0.000747838 0.000373886 0 
-0.0006542 0.000324842 0 -0.000645137 0.000210123 0 -0.000550884 0.000274171 0 
-0.000538857 0.000163195 0 -0.00045062 0.000224461 0 -0.000438393 0.000123907 0 
-0.000354088 0.000181668 0 -0.000363908 0.000282171 0 -0.000270361 0.000239477 0 
-0.000279138 0.000337653 0 -0.000188888 0.000294791 0 -0.000196448 0.000393271 0 
-0.000104767 0.000348259 0 -0.000113332 0.000449012 0 -2.01066e-05 0.000403223 0 
-2.89189e-05 0.000507105 0 6.9524e-05 0.000461596 0 -0.000213644 0.000490203 0 
7.33757e-05 0.000357726 0 0.000163331 0.00041299 0 0.000163359 0.000313022 0 
0.000248077 0.000366368 0 0.000250914 0.000265758 0 0.000335709 0.000322266 0 
0.000340555 0.000218148 0 0.000427299 0.000276717 0 0.000431508 0.000173093 0 
0.000328731 0.000425633 0 0.00034586 0.000114823 0 0.000435362 7.05241e-05 0 
0.000350892 1.5455e-05 0 0.000441547 -3.11896e-05 0 0.000353547 -8.47783e-05 0 
0.000445767 -0.000132964 0 0.000356135 -0.000186358 0 0.000449094 -0.000234674 0 
0.000359978 -0.000287876 0 0.00026856 -0.000240545 0 0.000271895 -0.000341045 0 
0.000181792 -0.00029305 0 0.00018533 -0.000392851 0 9.75701e-05 -0.00034483 0 
9.98764e-05 -0.000444884 0 8.75116e-06 -0.000396343 0 1.20916e-05 -0.000500496 0 
-7.83929e-05 -0.000449843 0 -8.1471e-05 -0.000347249 0 -0.000171566 -0.000403733 0 
-0.000169889 -0.000298891 0 -0.000259867 -0.000354132 0 -0.000257696 -0.000249137 0 
-0.00034313 -0.000299896 0 -0.000344514 -0.000199127 0 -0.000434309 -0.000250039 0 
-0.000169832 -0.000505815 0 -0.000435227 -0.000146227 0 0.000280331 -0.000442424 0 
-0.000340889 8.76793e-05 0 -0.000515252 4.06198e-05 0 6.50491e-05 0.000568253 0 
0.00053278 1.74743e-05 0 0.000522071 0.000229831 0 -0.00037162 0.000391659 0 
-0.000255272 -0.000150439 0 -0.000442893 -0.000350705 0 0.000450067 -0.000332559 0 
0.000545175 -0.000276306 0 -0.000527797 -0.000197598 0 0.000105306 -0.000551033 0 
1.45836e-05 -0.000609147 0 0.00017145 0.000214453 0 0.000515525 0.000341711 0 
0.000636086 0.000290368 0 -0.000558657 0.000404468 0 -4.01232e-05 0.000616718 0 
6.60192e-05 0.000696422 0 -0.000101806 0.0002546 0 0.000271142 -3.88908e-05 0 
0.000179455 -0.00018534 0 -8.79553e-05 -0.000254307 0 -0.000749267 -0.000373451 0 
-0.000655941 -0.000323397 0 0.000709746 0.000466718 0 0.000698426 -0.000473086 0 
-5.25801e-05 -0.00084886 0 -4.93005e-05 0.000848038 0 0.000617396 -0.000413362 0 
0.000702056 -0.000369817 0 0.000131459 -0.000679171 0 2.48171e-05 -0.000715924 0 
-0.000664217 -0.00042729 0 -0.000528828 -8.80444e-05 0 -0.000611101 -0.000136672 0 
-0.000426972 -4.45841e-05 0 0.000800669 0.000378216 0 0.000821144 -0.000415062 0 
7.2799e-05 0.00088254 0 6.81831e-05 -0.00087503 0 0.000104963 -0.000788946 0 
-7.40696e-05 -0.000660054 0 0.000126061 0.000809943 0 0.000764361 0.000295682 0 
0.000166862 0.000630623 0 0.000516462 -0.00046707 0 -0.000563585 -0.000389606 0 
-0.000622598 -1.40238e-05 0 0.000629891 0.000171529 0 2.5614e-06 -0.000299794 0 
8.6901e-05 -0.00024329 0 0.000272045 -0.000136982 0 -0.00075148 0.000138321 0 
0.000209366 -0.000599589 0 0.000324913 -0.000630055 0 0.000614044 0.00041245 0 
0.00049651 -0.000573327 0 0.000394822 -0.000507321 0 -0.000173714 -0.000206698 0 
0.000264897 5.63722e-05 0 0.000247997 0.000152811 0 -4.63327e-05 -0.000920208 0 
9.18688e-05 0.000258626 0 -5.54111e-06 0.000290558 0 -0.000184219 0.000201484 0 
-0.000263559 0.000142267 0 -0.000256427 5.13624e-05 0 -0.000336894 -2.06179e-06 0 
-0.000228499 -4.2388e-05 0 -0.00017589 0.000106626 0 -0.000769947 -0.000133367 0 
0.000767591 -0.000500293 0 -5.05874e-05 0.000737978 0 0.000754456 -3.51771e-06 0 
0.00064691 -6.15298e-05 0 0.000630483 -0.00018134 0 0.000749187 -0.000265543 0 
-0.000760805 -0.000462521 0 0.000638155 6.09315e-05 0 -4.46661e-05 0.000922995 0 
-2.37945e-05 0.000207237 0 0.000776979 0.000500181 0 -0.000605691 0.000527596 0 
-0.000377914 -0.000653727 0 -0.000372325 -0.000526022 0 -0.000275829 -0.000589621 0 
-0.000254285 -0.000710579 0 -0.000379307 0.000656222 0 -0.000379818 0.00052718 0 
-0.000266817 0.000721555 0 -0.000150544 0.000668174 0 0.000381963 0.00065079 0 
0.000493113 0.000590432 0 0.000505439 0.000463708 0 -0.000269094 0.000596608 0 
0.000385815 0.000532045 0 0.000283599 0.0005899 0 -0.000176405 -0.000108505 0 
-0.000278769 -0.000475415 0 0.000185395 2.33014e-06 0 0.000186773 0.000517571 0 
0.000540032 -8.68444e-05 0 -0.000600694 -0.000514877 0 -0.00063703 8.98033e-05 0 
-0.000459677 0.000335729 0 -0.000338836 -0.000100751 0 -0.000457327 0.000432721 0 
-8.72007e-06 -0.000210238 0 0.000156073 0.000129496 0 -7.70692e-05 -0.000555049 0 
0.00036091 -0.000389728 0 0.000531628 0.000120564 0 -0.000285451 0.000435562 0 
0.000192719 -0.000494604 0 0.00041642 0.00039368 0 -0.000135943 0.000554637 0 
-0.000170665 -0.000610079 0 -0.000666304 0.000434981 0 -0.000758736 0.000479231 0 
-0.000470189 -0.000458901 0 0.000203433 -8.59809e-05 0 0.000101846 0.000170114 0 
-0.00035513 -0.00040726 0 0.000100184 -0.000165831 0 2.96286e-05 0.00081537 0 
0.000720946 0.000381836 0 -0.000539809 -0.000292001 0 0.00052211 -0.000182426 0 
-6.41339e-05 -0.000753908 0 0.000638039 -0.000299861 0 -0.000605136 -0.000230182 0 
-3.41638e-05 -0.000145561 0 -0.000104037 0.000172396 0 -0.000808575 -0.00042774 0 
-0.000807207 -0.000465052 0 -0.00080817 0.000429771 0 -0.000806589 0.000469738 0 
-9.50634e-05 -0.000178909 0 0.000247777 0.000445058 0 1.48293e-05 -0.000814201 0 
-4.11555e-05 0.000140955 0 0.000276104 -0.000536845 0 0.000765969 -0.000436638 0 
0.000780871 -0.000362769 0 0.000424176 -0.000642018 0 0.00053413 -0.000368009 0 
-0.000416333 4.17911e-05 0 -0.000133891 -6.23822e-05 0 4.2574e-05 0.000206312 0 
[...]
POINT_DATA 626
VECTORS displacement float
-1.74395e-06 3.09546e-05 1.80551e-05
1.73565e-06 3.09736e-05 1.81002e-05
-2.59864e-05 1.69929e-05 1.80871e-05
-2.5841e-05 1.60331e-05 1.80517e-05
-2.77208e-05 1.39729e-05 1.80691e-05
-2.77137e-05 -1.40191e-05 1.80946e-05
-2.58122e-05 -1.60712e-05 1.81059e-05
-2.59826e-05 -1.7011e-05 1.81671e-05
-1.6774e-06 -3.09583e-05 1.80515e-05
1.75545e-06 -3.09598e-05 1.81019e-05
2.59437e-05 -1.69808e-05 1.80435e-05
2.77171e-05 -1.39367e-05 1.80434e-05
2.76726e-05 1.39895e-05 1.80917e-05
2.59151e-05 1.6993e-05 1.80461e-05
0 0 0
-1.74395e-06 3.09546e-05 -1.80551e-05
1.73565e-06 3.09736e-05 -1.81002e-05
-2.59864e-05 1.69929e-05 -1.80871e-05
-2.5841e-05 1.60331e-05 -1.80517e-05
-2.77208e-05 1.39729e-05 -1.80691e-05
-2.77137e-05 -1.40191e-05 -1.80946e-05
-2.58122e-05 -1.60712e-05 -1.81059e-05
-2.59826e-05 -1.7011e-05 -1.81671e-05
-1.6774e-06 -3.09583e-05 -1.80515e-05
1.75545e-06 -3.09598e-05 -1.81019e-05
2.59437e-05 -1.69808e-05 -1.80435e-05
2.77171e-05 -1.39367e-05 -1.80434e-05
2.76726e-05 1.39895e-05 -1.80917e-05
2.59151e-05 1.6993e-05 -1.80461e-05
0 0 0
2.48937e-08 3.01545e-05 1.80343e-05
-2.11407e-05 1.87125e-05 1.75498e-05
-1.72326e-05 1.98339e-05 1.69209e-05
-1.4007e-05 2.10543e-05 1.6555e-05
-1.12069e-05 2.26649e-05 1.65488e-05
-8.52411e-06 2.4833e-05 1.69014e-05
-5.56781e-06 2.76218e-05 1.75375e-05
-2.64499e-05 1.46792e-05 1.80335e-05
-2.67688e-05 -9.01158e-06 1.75774e-05
-2.58063e-05 -5.0355e-06 1.6926e-05
-2.52546e-05 -1.63622e-06 1.65714e-05
-2.52575e-05 1.60786e-06 1.65744e-05
-2.57986e-05 5.0229e-06 1.69242e-05
-2.6755e-05 8.98466e-06 1.7564e-05
-2.64369e-05 -1.47255e-05 1.80623e-05
-5.54107e-06 -2.76363e-05 1.75297e-05
-8.47663e-06 -2.4842e-05 1.69007e-05
-1.11701e-05 -2.26844e-05 1.65562e-05
-1.39707e-05 -2.10873e-05 1.65596e-05
-1.7215e-05 -1.98693e-05 1.69367e-05
-2.11343e-05 -1.87492e-05 1.75623e-05
8.98391e-08 -3.01392e-05 1.80294e-05
2.11241e-05 -1.86249e-05 1.75115e-05
1.72448e-05 -1.97623e-05 1.68729e-05
1.40339e-05 -2.10113e-05 1.65116e-05
1.12251e-05 -2.25931e-05 1.65462e-05
8.58127e-06 -2.47802e-05 1.68742e-05
5.65469e-06 -2.76265e-05 1.7535e-05
2.61247e-05 -1.50597e-05 1.80284e-05
2.67169e-05 8.93845e-06 1.75015e-05
2.57222e-05 5.04962e-06 1.69084e-05
2.52067e-05 1.62333e-06 1.65232e-05
2.52038e-05 -1.59944e-06 1.65215e-05
2.57508e-05 -4.99741e-06 1.68884e-05
2.6699e-05 -8.9172e-06 1.75097e-05
2.61077e-05 1.50609e-05 1.80254e-05
5.63315e-06 2.76179e-05 1.75096e-05
8.50864e-06 2.48069e-05 1.69112e-05
1.12171e-05 2.26411e-05 1.65294e-05
1.40046e-05 2.10222e-05 1.65248e-05
1.72218e-05 1.97935e-05 1.68851e-05
2.11151e-05 1.86345e-05 1.75254e-05
0 0 0
0 0 0
0 0 0
0 0 0
0 0 0
0 0 0
2.48937e-08 3.01545e-05 -1.80343e-05
-2.11407e-05 1.87125e-05 -1.75498e-05
-1.72326e-05 1.98339e-05 -1.69209e-05
-1.4007e-05 2.10543e-05 -1.6555e-05
-1.12069e-05 2.26649e-05 -1.65488e-05
-8.52411e-06 2.4833e-05 -1.69014e-05
-5.56781e-06 2.76218e-05 -1.75375e-05
-2.64499e-05 1.46792e-05 -1.80335e-05
-2.67688e-05 -9.01158e-06 -1.75774e-05
-2.58063e-05 -5.0355e-06 -1.6926e-05
-2.52546e-05 -1.63622e-06 -1.65714e-05
-2.52575e-05 1.60786e-06 -1.65744e-05
-2.57986e-05 5.0229e-06 -1.69242e-05
-2.6755e-05 8.98466e-06 -1.7564e-05
-2.64369e-05 -1.47255e-05 -1.80623e-05
-5.54107e-06 -2.76363e-05 -1.75297e-05
-8.47663e-06 -2.4842e-05 -1.69007e-05
-1.11701e-05 -2.26844e-05 -1.65562e-05
-1.39707e-05 -2.10873e-05 -1.65596e-05
-1.7215e-05 -1.98693e-05 -1.69367e-05
-2.11343e-05 -1.87492e-05 -1.75623e-05
8.98391e-08 -3.01392e-05 -1.80294e-05
2.11241e-05 -1.86249e-05 -1.75115e-05
1.72448e-05 -1.97623e-05 -1.68729e-05
1.40339e-05 -2.10113e-05 -1.65116e-05
1.12251e-05 -2.25931e-05 -1.65462e-05
8.58127e-06 -2.47802e-05 -1.68742e-05
5.65469e-06 -2.76265e-05 -1.7535e-05
2.61247e-05 -1.50597e-05 -1.80284e-05
2.67169e-05 8.93845e-06 -1.75015e-05
2.57222e-05 5.04962e-06 -1.69084e-05
2.52067e-05 1.62333e-06 -1.65232e-05
2.52038e-05 -1.59944e-06 -1.65215e-05
2.57508e-05 -4.99741e-06 -1.68884e-05
2.6699e-05 -8.9172e-06 -1.75097e-05
2.61077e-05 1.50609e-05 -1.80254e-05
5.63315e-06 2.76179e-05 -1.75096e-05
8.50864e-06 2.48069e-05 -1.69112e-05
1.12171e-05 2.26411e-05 -1.65294e-05
1.40046e-05 2.10222e-05 -1.65248e-05
1.72218e-05 1.97935e-05 -1.68851e-05
2.11151e-05 1.86345e-05 -1.75254e-05
0 0 0
0 0 0
0 0 0
0 0 0
0 0 0
0 0 0
1.79368e-06 8.58748e-07 4.55226e-06
1.73782e-06 -8.25116e-07 4.46081e-06
4.31954e-07 1.84963e-06 4.49513e-06
4.36099e-07 -1.78063e-06 4.3561e-06
-1.84749e-06 2.09632e-08 4.42237e-06
-1.12309e-06 -1.30888e-06 4.15101e-06
-1.15921e-06 1.3068e-06 4.19979e-06
-2.25131e-05 -7.2877e-06 1.7e-05
-2.21965e-05 7.37159e-06 1.69686e-05
-4.86045e-06 2.28986e-05 1.6937e-05
-4.85797e-06 -2.31317e-05 1.69639e-05
1.74213e-05 1.56355e-05 1.69299e-05
1.75688e-05 -1.55365e-05 1.69391e-05
2.10736e-05 3.16389e-06 1.63244e-05
-1.39532e-05 1.71513e-05 1.64784e-05
-1.35912e-05 -1.67413e-05 1.64099e-05
7.76787e-06 1.98196e-05 1.63312e-05
7.68488e-06 -2.031e-05 1.64025e-05
2.14724e-05 -3.44374e-06 1.64002e-05
-2.11028e-05 6.58809e-09 1.62467e-05
-2.24204e-05 1.09998e-05 1.74536e-05
-1.8751e-05 9.25472e-06 1.66271e-05
-1.79828e-05 5.79546e-06 1.60363e-05
-1.4984e-05 7.44835e-06 1.54863e-05
-1.42245e-05 4.30773e-06 1.48296e-05
-1.15326e-05 5.7439e-06 1.40947e-05
-1.0858e-05 3.06874e-06 1.33735e-05
-8.4005e-06 4.30488e-06 1.24043e-05
-9.05882e-06 7.01342e-06 1.34563e-05
-6.20411e-06 5.48852e-06 1.16889e-05
-6.82831e-06 8.24946e-06 1.30799e-05
-4.2814e-06 6.67492e-06 1.14504e-05
-4.80002e-06 9.60994e-06 1.30938e-05
-2.40088e-06 7.99336e-06 1.17229e-05
-2.81286e-06 1.11672e-05 1.34748e-05
-4.75411e-07 9.59531e-06 1.25009e-05
-7.38356e-07 1.29969e-05 1.41416e-05
1.73108e-06 1.15178e-05 1.35349e-05
-5.5347e-06 1.27004e-05 1.44368e-05
1.68508e-06 8.22399e-06 1.17475e-05
4.00419e-06 1.01209e-05 1.31508e-05
3.70536e-06 7.09796e-06 1.14782e-05
6.06742e-06 8.96669e-06 1.31133e-05
5.76683e-06 6.1068e-06 1.17355e-05
8.3581e-06 8.02034e-06 1.34919e-05
8.10567e-06 5.19528e-06 1.25003e-05
1.0954e-05 7.09707e-06 1.41469e-05
1.0746e-05 4.3228e-06 1.3499e-05
8.53054e-06 1.10375e-05 1.44607e-05
7.93771e-06 2.64375e-06 1.17273e-05
1.0646e-05 1.7372e-06 1.31039e-05
7.9487e-06 3.58761e-07 1.14555e-05
1.08064e-05 -7.59114e-07 1.3124e-05
8.11166e-06 -1.93781e-06 1.1709e-05
1.10983e-05 -3.31286e-06 1.34838e-05
8.46975e-06 -4.42399e-06 1.2444e-05
1.15037e-05 -6.0029e-06 1.41093e-05
8.95559e-06 -7.13813e-06 1.3428e-05
6.14754e-06 -5.49443e-06 1.16412e-05
6.64451e-06 -8.30088e-06 1.30182e-05
4.10521e-06 -6.58853e-06 1.13108e-05
4.52337e-06 -9.55089e-06 1.29882e-05
2.2423e-06 -7.85831e-06 1.15973e-05
2.48484e-06 -1.10019e-05 1.33509e-05
2.25291e-07 -9.37371e-06 1.23535e-05
3.30014e-07 -1.27698e-05 1.40338e-05
-1.91544e-06 -1.11507e-05 1.33769e-05
-1.84107e-06 -7.92164e-06 1.15821e-05
-4.16791e-06 -9.87488e-06 1.3085e-05
-3.81395e-06 -6.73052e-06 1.1317e-05
-6.34564e-06 -8.66205e-06 1.30992e-05
-5.89132e-06 -5.69803e-06 1.16283e-05
-8.49975e-06 -7.43582e-06 1.33796e-05
-8.16757e-06 -4.72807e-06 1.24086e-05
-1.10957e-05 -6.40279e-06 1.40698e-05
-4.37167e-06 -1.31232e-05 1.44336e-05
-1.08089e-05 -3.65069e-06 1.34392e-05
7.22614e-06 -1.13728e-05 1.42729e-05
-7.74173e-06 1.98269e-06 1.14929e-05
-1.32162e-05 1.03506e-06 1.42109e-05
1.72913e-06 1.50829e-05 1.49522e-05
1.37681e-05 4.62239e-07 1.43878e-05
1.38432e-05 6.10013e-06 1.49317e-05
-9.6941e-06 1.01963e-05 1.45325e-05
-5.41603e-06 -3.19767e-06 1.01821e-05
-1.17136e-05 -9.29738e-06 1.48892e-05
1.18824e-05 -8.76025e-06 1.47871e-05
1.47818e-05 -7.47364e-06 1.54034e-05
-1.39598e-05 -5.24392e-06 1.48617e-05
2.79583e-06 -1.45162e-05 1.47962e-05
4.24565e-07 -1.64995e-05 1.53978e-05
3.51845e-06 4.39696e-06 9.58112e-06
1.40106e-05 9.2991e-06 1.54916e-05
1.79309e-05 8.145e-06 1.63006e-05
-1.56755e-05 1.13954e-05 1.62335e-05
-1.09409e-06 1.67692e-05 1.54953e-05
1.90687e-06 1.96217e-05 1.6311e-05
-2.09188e-06 5.2201e-06 9.59762e-06
5.55397e-06 -7.84607e-07 9.59417e-06
3.58597e-06 -3.68358e-06 9.082e-06
-1.77965e-06 -5.1786e-06 9.44963e-06
-2.24689e-05 -1.10109e-05 1.74744e-05
-1.87983e-05 -9.24146e-06 1.66511e-05
2.11479e-05 1.41649e-05 1.75057e-05
2.07539e-05 -1.43177e-05 1.74356e-05
-1.76461e-06 -2.54466e-05 1.7511e-05
-1.68214e-06 2.54107e-05 1.75156e-05
1.77131e-05 -1.19069e-05 1.66872e-05
2.06458e-05 -1.07511e-05 1.7116e-05
3.77566e-06 -1.89852e-05 1.61394e-05
7.68534e-07 -2.03459e-05 1.64829e-05
-1.94052e-05 -1.26506e-05 1.71432e-05
-1.37312e-05 -2.30694e-06 1.44719e-05
-1.65928e-05 -3.70145e-06 1.54776e-05
-1.03759e-05 -1.09639e-06 1.29521e-05
2.44522e-05 1.10728e-05 1.76517e-05
2.54977e-05 -1.24033e-05 1.78482e-05
2.64926e-06 2.67261e-05 1.76605e-05
2.52101e-06 -2.64137e-05 1.76294e-05
3.33948e-06 -2.3032e-05 1.70291e-05
-2.0539e-06 -1.832e-05 1.59509e-05
4.05908e-06 2.37914e-05 1.71304e-05
2.26142e-05 8.37929e-06 1.71193e-05
4.61362e-06 1.73134e-05 1.57273e-05
1.4427e-05 -1.31195e-05 1.61374e-05
-1.57877e-05 -1.09848e-05 1.62146e-05
-1.67998e-05 -3.81429e-07 1.53774e-05
1.7306e-05 4.68749e-06 1.57257e-05
6.55221e-08 -6.38733e-06 1.02674e-05
1.74172e-06 -4.84847e-06 9.0925e-06
5.85048e-06 -2.93552e-06 1.03782e-05
-2.14442e-05 3.75052e-06 1.64589e-05
5.72938e-06 -1.62745e-05 1.55077e-05
9.08348e-06 -1.74991e-05 1.59975e-05
1.75722e-05 1.18817e-05 1.66723e-05
1.39943e-05 -1.63823e-05 1.64013e-05
1.074e-05 -1.3789e-05 1.55501e-05
-3.54798e-06 -4.2202e-06 9.50078e-06
5.39913e-06 1.1385e-06 9.49906e-06
5.21806e-06 3.22288e-06 1.00472e-05
-1.74979e-06 -2.83546e-05 1.78769e-05
1.89206e-06 5.2989e-06 9.58446e-06
-1.13824e-07 6.10502e-06 1.00388e-05
-3.78493e-06 4.12775e-06 9.57842e-06
-5.62269e-06 3.03419e-06 1.02853e-05
-5.16548e-06 1.04067e-06 9.21362e-06
-7.52725e-06 -6.17393e-08 1.11724e-05
-4.33438e-06 -8.10279e-07 8.38187e-06
-3.10859e-06 1.87234e-06 7.37408e-06
-2.20812e-05 -3.60776e-06 1.65158e-05
2.34062e-05 -1.5688e-05 1.78361e-05
-1.5072e-06 2.11679e-05 1.66821e-05
2.12617e-05 -8.45198e-08 1.62258e-05
1.76221e-05 -1.6468e-06 1.55814e-05
1.73477e-05 -4.94168e-06 1.57707e-05
2.18916e-05 -7.45112e-06 1.69136e-05
-2.31822e-05 -1.42546e-05 1.78327e-05
1.73246e-05 1.64887e-06 1.55085e-05
-1.734e-06 2.84731e-05 1.78941e-05
-4.22072e-07 3.68342e-06 7.49531e-06
2.3772e-05 1.57424e-05 1.78846e-05
-1.74974e-05 1.56423e-05 1.6975e-05
-1.06262e-05 -1.84661e-05 1.62551e-05
-1.00996e-05 -1.43423e-05 1.55717e-05
-7.50778e-06 -1.60949e-05 1.56221e-05
-7.32214e-06 -2.01205e-05 1.63953e-05
-1.07045e-05 1.85353e-05 1.62668e-05
-1.03473e-05 1.43841e-05 1.56194e-05
-7.77265e-06 2.04924e-05 1.64442e-05
-4.253e-06 1.86097e-05 1.6053e-05
1.07597e-05 1.83455e-05 1.62262e-05
1.38917e-05 1.69349e-05 1.6431e-05
1.4042e-05 1.29729e-05 1.60513e-05
-7.36159e-06 1.62883e-05 1.56385e-05
1.05251e-05 1.45471e-05 1.56452e-05
7.74876e-06 1.60923e-05 1.5614e-05
-3.11647e-06 -1.89877e-06 7.3932e-06
-7.25766e-06 -1.2422e-05 1.46252e-05
3.00867e-06 4.03603e-08 6.601e-06
4.87259e-06 1.35228e-05 1.46181e-05
1.4076e-05 -2.26039e-06 1.45705e-05
-1.72898e-05 -1.52167e-05 1.69455e-05
-1.73665e-05 2.42031e-06 1.55978e-05
-1.22047e-05 8.91196e-06 1.49435e-05
-7.70565e-06 -2.29253e-06 1.15547e-05
-1.24498e-05 1.18127e-05 1.554e-05
-1.42736e-07 -3.75423e-06 7.5542e-06
2.73024e-06 2.27208e-06 7.25195e-06
-2.00387e-06 -1.46505e-05 1.48081e-05
9.36512e-06 -1.00683e-05 1.43894e-05
1.38608e-05 3.15782e-06 1.45661e-05
-7.34006e-06 1.11994e-05 1.42603e-05
4.99724e-06 -1.27748e-05 1.43693e-05
1.10319e-05 1.04305e-05 1.49197e-05
-3.59646e-06 1.46853e-05 1.49081e-05
-4.63548e-06 -1.66169e-05 1.55489e-05
-1.95071e-05 1.28925e-05 1.71613e-05
-2.3127e-05 1.48582e-05 1.78435e-05
-1.2905e-05 -1.26861e-05 1.58126e-05
3.76081e-06 -1.58613e-06 7.90698e-06
1.7644e-06 2.92229e-06 7.08446e-06
-9.23052e-06 -1.06095e-05 1.45318e-05
1.72775e-06 -2.82317e-06 6.93109e-06
9.94734e-07 2.4117e-05 1.73086e-05
2.13681e-05 1.11939e-05 1.72987e-05
-1.46647e-05 -7.95342e-06 1.54854e-05
1.37081e-05 -4.78634e-06 1.46907e-05
-1.90989e-06 -2.17631e-05 1.68028e-05
1.80605e-05 -8.4191e-06 1.63408e-05
-1.6679e-05 -6.3286e-06 1.57825e-05
-4.32902e-07 -1.92233e-06 4.7985e-06
-1.80538e-06 2.99545e-06 7.17721e-06
-2.50521e-05 -1.29819e-05 1.79224e-05
-2.51273e-05 -1.45074e-05 1.80022e-05
-2.50453e-05 1.30338e-05 1.79061e-05
-2.51182e-05 1.465e-05 1.79822e-05
-1.64846e-06 -3.12486e-06 7.20995e-06
6.32798e-06 1.13684e-05 1.40766e-05
5.33712e-07 -2.40862e-05 1.73023e-05
-5.2278e-07 1.80955e-06 4.64503e-06
7.4075e-06 -1.43437e-05 1.51524e-05
2.3303e-05 -1.32094e-05 1.77289e-05
2.36328e-05 -1.05376e-05 1.74909e-05
1.19885e-05 -1.8211e-05 1.62934e-05
1.47302e-05 -1.01467e-05 1.57957e-05
-1.00271e-05 1.00125e-06 1.27547e-05
-1.74002e-06 -8.15906e-07 4.72348e-06
7.69068e-07 3.70837e-06 7.57318e-06
2.34308e-06 -1.99717e-06 6.55532e-06
2.01566e-05 5.89786e-06 1.64537e-05
5.07012e-06 2.05961e-05 1.64961e-05
3.42118e-07 -2.76802e-05 1.78541e-05
-1.73124e-06 7.09115e-07 4.60635e-06
-3.21152e-06 6.23051e-07 6.82418e-06
3.57723e-06 1.47542e-06 7.63666e-06
4.99226e-07 2.8324e-05 1.79274e-05
2.47605e-05 1.37342e-05 1.79185e-05
-2.03285e-05 1.55359e-05 1.74291e-05
1.17871e-06 1.36448e-06 4.45988e-06
-2.06397e-05 -1.57285e-05 1.75277e-05
-1.8999e-05 -2.3222e-06 1.59463e-05
-1.95593e-05 -5.58502e-06 1.63324e-05
9.05687e-07 -3.24777e-06 7.00614e-06
-4.36605e-06 -1.97894e-05 1.63219e-05
-7.93733e-06 1.38345e-05 1.51012e-05
1.16575e-06 -1.30419e-06 4.33932e-06
1.19345e-05 -1.12284e-05 1.52923e-05
6.1331e-06 -2.26962e-05 1.68206e-05
-1.45222e-05 1.43555e-05 1.63237e-05
7.92912e-06 1.33213e-05 1.49481e-05
1.79368e-06 8.58748e-07 -4.55226e-06
1.73782e-06 -8.25116e-07 -4.46081e-06
4.31954e-07 1.84963e-06 -4.49513e-06
4.36099e-07 -1.78063e-06 -4.3561e-06
-1.84749e-06 2.09632e-08 -4.42237e-06
-1.12309e-06 -1.30888e-06 -4.15101e-06
-1.15921e-06 1.3068e-06 -4.19979e-06
-2.25131e-05 -7.2877e-06 -1.7e-05
-2.21965e-05 7.37159e-06 -1.69686e-05
-4.86045e-06 2.28986e-05 -1.6937e-05
-4.85797e-06 -2.31317e-05 -1.69639e-05
1.74213e-05 1.56355e-05 -1.69299e-05
1.75688e-05 -1.55365e-05 -1.69391e-05
2.10736e-05 3.16389e-06 -1.63244e-05
-1.39532e-05 1.71513e-05 -1.64784e-05
-1.35912e-05 -1.67413e-05 -1.64099e-05
7.76787e-06 1.98196e-05 -1.63312e-05
7.68488e-06 -2.031e-05 -1.64025e-05
2.14724e-05 -3.44374e-06 -1.64002e-05
-2.11028e-05 6.58809e-09 -1.62467e-05
-2.24204e-05 1.09998e-05 -1.74536e-05
-1.8751e-05 9.25472e-06 -1.66271e-05
-1.79828e-05 5.79546e-06 -1.60363e-05
-1.4984e-05 7.44835e-06 -1.54863e-05
-1.42245e-05 4.30773e-06 -1.48296e-05
-1.15326e-05 5.7439e-06 -1.40947e-05
-1.0858e-05 3.06874e-06 -1.33735e-05
-8.4005e-06 4.30488e-06 -1.24043e-05
-9.05882e-06 7.01342e-06 -1.34563e-05
-6.20411e-06 5.48852e-06 -1.16889e-05
-6.82831e-06 8.24946e-06 -1.30799e-05
-4.2814e-06 6.67492e-06 -1.14504e-05
-4.80002e-06 9.60994e-06 -1.30938e-05
-2.40088e-06 7.99336e-06 -1.17229e-05
-2.81286e-06 1.11672e-05 -1.34748e-05
-4.75411e-07 9.59531e-06 -1.25009e-05
-7.38356e-07 1.29969e-05 -1.41416e-05
1.73108e-06 1.15178e-05 -1.35349e-05
-5.5347e-06 1.27004e-05 -1.44368e-05
1.68508e-06 8.22399e-06 -1.17475e-05
4.00419e-06 1.01209e-05 -1.31508e-05
3.70536e-06 7.09796e-06 -1.14782e-05
6.06742e-06 8.96669e-06 -1.31133e-05
5.76683e-06 6.1068e-06 -1.17355e-05
8.3581e-06 8.02034e-06 -1.34919e-05
8.10567e-06 5.19528e-06 -1.25003e-05
1.0954e-05 7.09707e-06 -1.41469e-05
1.0746e-05 4.3228e-06 -1.3499e-05
8.53054e-06 1.10375e-05 -1.44607e-05
7.93771e-06 2.64375e-06 -1.17273e-05
1.0646e-05 1.7372e-06 -1.31039e-05
7.9487e-06 3.58761e-07 -1.14555e-05
1.08064e-05 -7.59114e-07 -1.3124e-05
8.11166e-06 -1.93781e-06 -1.1709e-05
1.10983e-05 -3.31286e-06 -1.34838e-05
8.46975e-06 -4.42399e-06 -1.2444e-05
1.15037e-05 -6.0029e-06 -1.41093e-05
8.95559e-06 -7.13813e-06 -1.3428e-05
6.14754e-06 -5.49443e-06 -1.16412e-05
6.64451e-06 -8.30088e-06 -1.30182e-05
4.10521e-06 -6.58853e-06 -1.13108e-05
4.52337e-06 -9.55089e-06 -1.29882e-05
2.2423e-06 -7.85831e-06 -1.15973e-05
2.48484e-06 -1.10019e-05 -1.33509e-05
2.25291e-07 -9.37371e-06 -1.23535e-05
3.30014e-07 -1.27698e-05 -1.40338e-05
-1.91544e-06 -1.11507e-05 -1.33769e-05
-1.84107e-06 -7.92164e-06 -1.15821e-05
-4.16791e-06 -9.87488e-06 -1.3085e-05
-3.81395e-06 -6.73052e-06 -1.1317e-05
-6.34564e-06 -8.66205e-06 -1.30992e-05
-5.89132e-06 -5.69803e-06 -1.16283e-05
-8.49975e-06 -7.43582e-06 -1.33796e-05
-8.16757e-06 -4.72807e-06 -1.24086e-05
-1.10957e-05 -6.40279e-06 -1.40698e-05
-4.37167e-06 -1.31232e-05 -1.44336e-05
-1.08089e-05 -3.65069e-06 -1.34392e-05
7.22614e-06 -1.13728e-05 -1.42729e-05
-7.74173e-06 1.98269e-06 -1.14929e-05
-1.32162e-05 1.03506e-06 -1.42109e-05
1.72913e-06 1.50829e-05 -1.49522e-05
1.37681e-05 4.62239e-07 -1.43878e-05
1.38432e-05 6.10013e-06 -1.49317e-05
-9.6941e-06 1.01963e-05 -1.45325e-05
-5.41603e-06 -3.19767e-06 -1.01821e-05
-1.17136e-05 -9.29738e-06 -1.48892e-05
1.18824e-05 -8.76025e-06 -1.47871e-05
1.47818e-05 -7.47364e-06 -1.54034e-05
-1.39598e-05 -5.24392e-06 -1.48617e-05
2.79583e-06 -1.45162e-05 -1.47962e-05
4.24565e-07 -1.64995e-05 -1.53978e-05
3.51845e-06 4.39696e-06 -9.58112e-06
1.40106e-05 9.2991e-06 -1.54916e-05
1.79309e-05 8.145e-06 -1.63006e-05
-1.56755e-05 1.13954e-05 -1.62335e-05
-1.09409e-06 1.67692e-05 -1.54953e-05
1.90687e-06 1.96217e-05 -1.6311e-05
-2.09188e-06 5.2201e-06 -9.59762e-06
5.55397e-06 -7.84607e-07 -9.59417e-06
3.58597e-06 -3.68358e-06 -9.082e-06
-1.77965e-06 -5.1786e-06 -9.44963e-06
-2.24689e-05 -1.10109e-05 -1.74744e-05
-1.87983e-05 -9.24146e-06 -1.66511e-05
2.11479e-05 1.41649e-05 -1.75057e-05
2.07539e-05 -1.43177e-05 -1.74356e-05
-1.76461e-06 -2.54466e-05 -1.7511e-05
-1.68214e-06 2.54107e-05 -1.75156e-05
1.77131e-05 -1.19069e-05 -1.66872e-05
2.06458e-05 -1.07511e-05 -1.7116e-05
3.77566e-06 -1.89852e-05 -1.61394e-05
7.68534e-07 -2.03459e-05 -1.64829e-05
-1.94052e-05 -1.26506e-05 -1.71432e-05
-1.37312e-05 -2.30694e-06 -1.44719e-05
-1.65928e-05 -3.70145e-06 -1.54776e-05
-1.03759e-05 -1.09639e-06 -1.29521e-05
2.44522e-05 1.10728e-05 -1.76517e-05
2.54977e-05 -1.24033e-05 -1.78482e-05
2.64926e-06 2.67261e-05 -1.76605e-05
2.52101e-06 -2.64137e-05 -1.76294e-05
3.33948e-06 -2.3032e-05 -1.70291e-05
-2.0539e-06 -1.832e-05 -1.59509e-05
4.05908e-06 2.37914e-05 -1.71304e-05
2.26142e-05 8.37929e-06 -1.71193e-05
4.61362e-06 1.73134e-05 -1.57273e-05
1.4427e-05 -1.31195e-05 -1.61374e-05
-1.57877e-05 -1.09848e-05 -1.62146e-05
-1.67998e-05 -3.81429e-07 -1.53774e-05
1.7306e-05 4.68749e-06 -1.57257e-05
6.55221e-08 -6.38733e-06 -1.02674e-05
1.74172e-06 -4.84847e-06 -9.0925e-06
5.85048e-06 -2.93552e-06 -1.03782e-05
-2.14442e-05 3.75052e-06 -1.64589e-05
5.72938e-06 -1.62745e-05 -1.55077e-05
9.08348e-06 -1.74991e-05 -1.59975e-05
1.75722e-05 1.18817e-05 -1.66723e-05
1.39943e-05 -1.63823e-05 -1.64013e-05
1.074e-05 -1.3789e-05 -1.55501e-05
-3.54798e-06 -4.2202e-06 -9.50078e-06
5.39913e-06 1.1385e-06 -9.49906e-06
5.21806e-06 3.22288e-06 -1.00472e-05
-1.74979e-06 -2.83546e-05 -1.78769e-05
1.89206e-06 5.2989e-06 -9.58446e-06
-1.13824e-07 6.10502e-06 -1.00388e-05
-3.78493e-06 4.12775e-06 -9.57842e-06
-5.62269e-06 3.03419e-06 -1.02853e-05
-5.16548e-06 1.04067e-06 -9.21362e-06
-7.52725e-06 -6.17393e-08 -1.11724e-05
-4.33438e-06 -8.10279e-07 -8.38187e-06
-3.10859e-06 1.87234e-06 -7.37408e-06
-2.20812e-05 -3.60776e-06 -1.65158e-05
2.34062e-05 -1.5688e-05 -1.78361e-05
-1.5072e-06 2.11679e-05 -1.66821e-05
2.12617e-05 -8.45198e-08 -1.62258e-05
1.76221e-05 -1.6468e-06 -1.55814e-05
1.73477e-05 -4.94168e-06 -1.57707e-05
2.18916e-05 -7.45112e-06 -1.69136e-05
-2.31822e-05 -1.42546e-05 -1.78327e-05
1.73246e-05 1.64887e-06 -1.55085e-05
-1.734e-06 2.84731e-05 -1.78941e-05
-4.22072e-07 3.68342e-06 -7.49531e-06