# vtk DataFile Version 3.0
vtk output at time 180
ASCII
DATASET UNSTRUCTURED_GRID
POINTS 626 float
-3.68058e-05 0.000978749 0 3.68058e-05 0.000978749 0 -0.000829194 0.00052125 0 
-0.0008235 0.0005 0 -0.000866 0.0004575 0 -0.000866 -0.0004575 0 
-0.0008235 -0.0005 0 -0.000829194 -0.00052125 0 -3.68058e-05 -0.000978749 0 
3.68058e-05 -0.000978749 0 0.000829194 -0.00052125 0 0.000866 -0.0004575 0 
0.000866 0.0004575 0 0.000829194 0.00052125 0 8.5e-05 0 0 
-3.68058e-05 0.000978749 -0.001 3.68058e-05 0.000978749 -0.001 -0.000829194 0.00052125 -0.001 
-0.0008235 0.0005 -0.001 -0.000866 0.0004575 -0.001 -0.000866 -0.0004575 -0.001 
-0.0008235 -0.0005 -0.001 -0.000829194 -0.00052125 -0.001 -3.68058e-05 -0.000978749 -0.001 
3.68058e-05 -0.000978749 -0.001 0.000829194 -0.00052125 -0.001 0.000866 -0.0004575 -0.001 
0.000866 0.0004575 -0.001 0.000829194 0.00052125 -0.001 8.5e-05 0 -0.001 
8.46223e-17 0.0009575 0 -0.000715996 0.000586607 0 -0.000602797 0.000651965 0 
-0.000489599 0.000717321 0 -0.000376401 0.000782678 0 -0.000263202 0.000848036 0 
-0.000150004 0.000913393 0 -0.000835948 0.000469948 0 -0.000866 -0.000326786 0 
-0.000866 -0.000196071 0 -0.000866 -6.53571e-05 0 -0.000866 6.53571e-05 0 
-0.000866 0.000196071 0 -0.000866 0.000326786 0 -0.000835948 -0.000469948 0 
-0.000150004 -0.000913393 0 -0.000263202 -0.000848036 0 -0.000376401 -0.000782678 0 
-0.000489599 -0.000717321 0 -0.000602797 -0.000651965 0 -0.000715996 -0.000586607 0 
8.47648e-17 -0.0009575 0 0.000715996 -0.000586607 0 0.000602797 -0.000651965 0 
0.000489599 -0.000717321 0 0.000376401 -0.000782678 0 0.000263202 -0.000848036 0 
0.000150004 -0.000913393 0 0.000829194 -0.00047875 0 0.000866 0.000326786 0 
0.000866 0.000196071 0 0.000866 6.53571e-05 0 0.000866 -6.53571e-05 0 
0.000866 -0.000196071 0 0.000866 -0.000326786 0 0.000829194 0.00047875 0 
0.000150004 0.000913393 0 0.000263202 0.000848036 0 0.000376401 0.000782678 0 
0.000489599 0.000717321 0 0.000602797 0.000651965 0 0.000715996 0.000586607 0 
5.29966e-05 6.64557e-05 0 -1.89143e-05 8.28689e-05 0 -7.65824e-05 3.68801e-05 0 
-7.65824e-05 -3.68801e-05 0 -1.89143e-05 -8.28689e-05 0 5.29966e-05 -6.64557e-05 0 
8.46223e-17 0.0009575 -0.001 -0.000715996 0.000586607 -0.001 -0.000602797 0.000651965 -0.001 
-0.000489599 0.000717321 -0.001 -0.000376401 0.000782678 -0.001 -0.000263202 0.000848036 -0.001 
-0.000150004 0.000913393 -0.001 -0.000835948 0.000469948 -0.001 -0.000866 -0.000326786 -0.001 
-0.000866 -0.000196071 -0.001 -0.000866 -6.53571e-05 -0.001 -0.000866 6.53571e-05 -0.001 
-0.000866 0.000196071 -0.001 -0.000866 0.000326786 -0.001 -0.000835948 -0.000469948 -0.001 
-0.000150004 -0.000913393 -0.001 -0.000263202 -0.000848036 -0.001 -0.000376401 -0.000782678 -0.001 
-0.000489599 -0.000717321 -0.001 -0.000602797 -0.000651965 -0.001 -0.000715996 -0.000586607 -0.001 
8.47648e-17 -0.0009575 -0.001 0.000715996 -0.000586607 -0.001 0.000602797 -0.000651965 -0.001 
0.000489599 -0.000717321 -0.001 0.000376401 -0.000782678 -0.001 0.000263202 -0.000848036 -0.001 
0.000150004 -0.000913393 -0.001 0.000829194 -0.00047875 -0.001 0.000866 0.000326786 -0.001 
0.000866 0.000196071 -0.001 0.000866 6.53571e-05 -0.001 0.000866 -6.53571e-05 -0.001 
0.000866 -0.000196071 -0.001 0.000866 -0.000326786 -0.001 0.000829194 0.00047875 -0.001 
0.000150004 0.000913393 -0.001 0.000263202 0.000848036 -0.001 0.000376401 0.000782678 -0.001 
0.000489599 0.000717321 -0.001 0.000602797 0.000651965 -0.001 0.000715996 0.000586607 -0.001 
5.29966e-05 6.64557e-05 -0.001 -1.89143e-05 8.28689e-05 -0.001 -7.65824e-05 3.68801e-05 -0.001 
-7.65824e-05 -3.68801e-05 -0.001 -1.89143e-05 -8.28689e-05 -0.001 5.29966e-05 -6.64557e-05 -0.001 
0.000131234 6.38474e-05 0 0.00012964 -6.2443e-05 0 3.13827e-05 0.0001394 0 
3.12554e-05 -0.000136939 0 -0.000140461 8.25467e-19 0 -8.90565e-05 -0.000102707 0 
-9.04142e-05 0.000102872 0 -0.000765769 -0.00025965 0 -0.000756873 0.000262774 0 
-0.00015609 0.000787505 0 -0.000155807 -0.00079355 0 0.000605069 0.000528035 0 
0.000608694 -0.00052497 0 0.000744069 0.000116929 0 -0.000494418 0.000596218 0 
-0.000483866 -0.000584648 0 0.000269496 0.000702219 0 0.000263201 -0.000717324 0 
0.000754429 -0.000127825 0 -0.000748858 5.84659e-07 0 -0.000747838 0.000373886 0 
-0.0006542 0.000324842 0 -0.000645137 0.000210123 0 -0.000550884 0.000274171 0 
-0.000538857 0.000163195 0 -0.00045062 0.000224461 0 -0.000438393 0.000123907 0 
-0.000354088 0.000181668 0 -0.000363908 0.000282171 0 -0.000270361 0.000239477 0 
-0.000279138 0.000337653 0 -0.000188888 0.000294791 0 -0.000196448 0.000393271 0 
-0.000104767 0.000348259 0 -0.000113332 0.000449012 0 -2.01066e-05 0.000403223 0 
-2.89189e-05 0.000507105 0 6.9524e-05 0.000461596 0 -0.000213644 0.000490203 0 
7.33757e-05 0.000357726 0 0.000163331 0.00041299 0 0.000163359 0.000313022 0 
0.000248077 0.000366368 0 0.000250914 0.000265758 0 0.000335709 0.000322266 0 
0.000340555 0.000218148 0 0.000427299 0.000276717 0 0.000431508 0.000173093 0 
0.000328731 0.000425633 0 0.00034586 0.000114823 0 0.000435362 7.05241e-05 0 
0.000350892 1.5455e-05 0 0.000441547 -3.11896e-05 0 0.000353547 -8.47783e-05 0 
0.000445767 -0.000132964 0 0.000356135 -0.000186358 0 0.000449094 -0.000234674 0 
0.000359978 -0.000287876 0 0.00026856 -0.000240545 0 0.000271895 -0.000341045 0 
0.000181792 -0.00029305 0 0.00018533 -0.000392851 0 9.75701e-05 -0.00034483 0 
9.98764e-05 -0.000444884 0 8.75116e-06 -0.000396343 0 1.20916e-05 -0.000500496 0 
-7.83929e-05 -0.000449843 0 -8.1471e-05 -0.000347249 0 -0.000171566 -0.000403733 0 
-0.000169889 -0.000298891 0 -0.000259867 -0.000354132 0 -0.000257696 -0.000249137 0 
-0.00034313 -0.000299896 0 -0.000344514 -0.000199127 0 -0.000434309 -0.000250039 0 
-0.000169832 -0.000505815 0 -0.000435227 -0.000146227 0 0.000280331 -0.000442424 0 
-0.000340889 8.76793e-05 0 -0.000515252 4.06198e-05 0 6.50491e-05 0.000568253 0 
0.00053278 1.74743e-05 0 0.000522071 0.000229831 0 -0.00037162 0.000391659 0 
-0.000255272 -0.000150439 0 -0.000442893 -0.000350705 0 0.000450067 -0.000332559 0 
0.000545175 -0.000276306 0 -0.000527797 -0.000197598 0 0.000105306 -0.000551033 0 
1.45836e-05 -0.000609147 0 0.00017145 0.000214453 0 0.000515525 0.000341711 0 
0.000636086 0.000290368 0 -0.000558657 0.000404468 0 -4.01232e-05 0.000616718 0 
6.60192e-05 0.000696422 0 -0.000101806 0.0002546 0 0.000271142 -3.88908e-05 0 
0.000179455 -0.00018534 0 -8.79553e-05 -0.000254307 0 -0.000749267 -0.000373451 0 
-0.000655941 -0.000323397 0 0.000709746 0.000466718 0 0.000698426 -0.000473086 0 
-5.25801e-05 -0.00084886 0 -4.93005e-05 0.000848038 0 0.000617396 -0.000413362 0 
0.000702056 -0.000369817 0 0.000131459 -0.000679171 0 2.48171e-05 -0.000715924 0 
-0.000664217 -0.00042729 0 -0.000528828 -8.80444e-05 0 -0.000611101 -0.000136672 0 
-0.000426972 -4.45841e-05 0 0.000800669 0.000378216 0 0.000821144 -0.000415062 0 
7.2799e-05 0.00088254 0 6.81831e-05 -0.00087503 0 0.000104963 -0.000788946 0 
-7.40696e-05 -0.000660054 0 0.000126061 0.000809943 0 0.000764361 0.000295682 0 
0.000166862 0.000630623 0 0.000516462 -0.00046707 0 -0.000563585 -0.000389606 0 
-0.000622598 -1.40238e-05 0 0.000629891 0.000171529 0 2.5614e-06 -0.000299794 0 
8.6901e-05 -0.00024329 0 0.000272045 -0.000136982 0 -0.00075148 0.000138321 0 
0.000209366 -0.000599589 0 0.000324913 -0.000630055 0 0.000614044 0.00041245 0 
0.00049651 -0.000573327 0 0.000394822 -0.000507321 0 -0.000173714 -0.000206698 0 
0.000264897 5.63722e-05 0 0.000247997 0.000152811 0 -4.63327e-05 -0.000920208 0 
9.18688e-05 0.000258626 0 -5.54111e-06 0.000290558 0 -0.000184219 0.000201484 0 
-0.000263559 0.000142267 0 -0.000256427 5.13624e-05 0 -0.000336894 -2.06179e-06 0 
-0.000228499 -4.2388e-05 0 -0.00017589 0.000106626 0 -0.000769947 -0.000133367 0 
0.000767591 -0.000500293 0 -5.05874e-05 0.000737978 0 0.000754456 -3.51771e-06 0 
0.00064691 -6.15298e-05 0 0.000630483 -0.00018134 0 0.000749187 -0.000265543 0 
-0.000760805 -0.000462521 0 0.000638155 6.09315e-05 0 -4.46661e-05 0.000922995 0 
-2.37945e-05 0.000207237 0 0.000776979 0.000500181 0 -0.000605691 0.000527596 0 
-0.000377914 -0.000653727 0 -0.000372325 -0.000526022 0 -0.000275829 -0.000589621 0 
-0.000254285 -0.000710579 0 -0.000379307 0.000656222 0 -0.000379818 0.00052718 0 
-0.000266817 0.000721555 0 -0.000150544 0.000668174 0 0.000381963 0.00065079 0 
0.000493113 0.000590432 0 0.000505439 0.000463708 0 -0.000269094 0.000596608 0 
0.000385815 0.000532045 0 0.000283599 0.0005899 0 -0.000176405 -0.000108505 0 
-0.000278769 -0.000475415 0 0.000185395 2.33014e-06 0 0.000186773 0.000517571 0 
0.000540032 -8.68444e-05 0 -0.000600694 -0.000514877 0 -0.00063703 8.98033e-05 0 
-0.000459677 0.000335729 0 -0.000338836 -0.000100751 0 -0.000457327 0.000432721 0 
-8.72007e-06 -0.000210238 0 0.000156073 0.000129496 0 -7.70692e-05 -0.000555049 0 
0.00036091 -0.000389728 0 0.000531628 0.000120564 0 -0.000285451 0.000435562 0 
0.000192719 -0.000494604 0 0.00041642 0.00039368 0 -0.000135943 0.000554637 0 
-0.000170665 -0.000610079 0 -0.000666304 0.000434981 0 -0.000758736 0.000479231 0 
-0.000470189 -0.000458901 0 0.000203433 -8.59809e-05 0 0.000101846 0.000170114 0 
-0.00035513 -0.00040726 0 0.000100184 -0.000165831 0 2.96286e-05 0.00081537 0 
0.000720946 0.000381836 0 -0.000539809 -0.000292001 0 0.00052211 -0.000182426 0 
-6.41339e-05 -0.000753908 0 0.000638039 -0.000299861 0 -0.000605136 -0.000230182 0 
-3.41638e-05 -0.000145561 0 -0.000104037 0.000172396 0 -0.000808575 -0.00042774 0 
-0.000807207 -0.000465052 0 -0.00080817 0.000429771 0 -0.000806589 0.000469738 0 
-9.50634e-05 -0.000178909 0 0.000247777 0.000445058 0 1.48293e-05 -0.000814201 0 
-4.11555e-05 0.000140955 0 0.000276104 -0.000536845 0 0.000765969 -0.000436638 0 
0.000780871 -0.000362769 0 0.000424176 -0.000642018 0 0.00053413 -0.000368009 0 
-0.000416333 4.17911e-05 0 -0.000133891 -6.23822e-05 0 4.2574e-05 0.000206312 0 
[...]
POINT_DATA 626
VECTORS displacement float
-1.74394e-06 3.09551e-05 1.80553e-05
1.73565e-06 3.09741e-05 1.81004e-05
-2.59868e-05 1.69932e-05 1.80873e-05
-2.58414e-05 1.60333e-05 1.80519e-05
-2.77212e-05 1.39731e-05 1.80693e-05
-2.77142e-05 -1.40194e-05 1.80948e-05
-2.58126e-05 -1.60715e-05 1.81061e-05
-2.5983e-05 -1.70112e-05 1.81673e-05
-1.6774e-06 -3.09588e-05 1.80517e-05
1.75545e-06 -3.09603e-05 1.81022e-05
2.59442e-05 -1.6981e-05 1.80438e-05
2.77175e-05 -1.3937e-05 1.80436e-05
2.7673e-05 1.39897e-05 1.80919e-05
2.59155e-05 1.69933e-05 1.80463e-05
0 0 0
-1.74394e-06 3.09551e-05 -1.80553e-05
1.73565e-06 3.09741e-05 -1.81004e-05
-2.59868e-05 1.69932e-05 -1.80873e-05
-2.58414e-05 1.60333e-05 -1.80519e-05
-2.77212e-05 1.39731e-05 -1.80693e-05
-2.77142e-05 -1.40194e-05 -1.80948e-05
-2.58126e-05 -1.60715e-05 -1.81061e-05
-2.5983e-05 -1.70112e-05 -1.81673e-05
-1.6774e-06 -3.09588e-05 -1.80517e-05
1.75545e-06 -3.09603e-05 -1.81022e-05
2.59442e-05 -1.6981e-05 -1.80438e-05
2.77175e-05 -1.3937e-05 -1.80436e-05
2.7673e-05 1.39897e-05 -1.80919e-05
2.59155e-05 1.69933e-05 -1.80463e-05
0 0 0
2.48917e-08 3.01549e-05 1.80345e-05
-2.11411e-05 1.87128e-05 1.755e-05
-1.72329e-05 1.98343e-05 1.69211e-05
-1.40073e-05 2.10547e-05 1.65553e-05
-1.12071e-05 2.26654e-05 1.65491e-05
-8.52424e-06 2.48335e-05 1.69017e-05
-5.56786e-06 2.76223e-05 1.75377e-05
-2.64504e-05 1.46794e-05 1.80337e-05
-2.67693e-05 -9.01179e-06 1.75777e-05
-2.58068e-05 -5.03564e-06 1.69263e-05
-2.52551e-05 -1.63626e-06 1.65717e-05
-2.52581e-05 1.6079e-06 1.65747e-05
-2.57991e-05 5.02303e-06 1.69245e-05
-2.67555e-05 8.98487e-06 1.75642e-05
-2.64373e-05 -1.47258e-05 1.80625e-05
-5.54112e-06 -2.76368e-05 1.753e-05
-8.47676e-06 -2.48425e-05 1.6901e-05
-1.11703e-05 -2.26848e-05 1.65565e-05
-1.39709e-05 -2.10878e-05 1.65599e-05
-1.72154e-05 -1.98696e-05 1.6937e-05
-2.11347e-05 -1.87495e-05 1.75625e-05
8.98364e-08 -3.01397e-05 1.80296e-05
2.11245e-05 -1.86252e-05 1.75117e-05
1.72451e-05 -1.97626e-05 1.68732e-05
1.40342e-05 -2.10117e-05 1.65119e-05
1.12253e-05 -2.25935e-05 1.65465e-05
8.5814e-06 -2.47807e-05 1.68745e-05
5.65473e-06 -2.76271e-05 1.75353e-05
2.61251e-05 -1.506e-05 1.80286e-05
2.67174e-05 8.93866e-06 1.75018e-05
2.57226e-05 5.04976e-06 1.69087e-05
2.52072e-05 1.62338e-06 1.65235e-05
2.52043e-05 -1.59949e-06 1.65218e-05
2.57513e-05 -4.99755e-06 1.68886e-05
2.66994e-05 -8.91742e-06 1.751e-05
2.61081e-05 1.50611e-05 1.80257e-05
5.63319e-06 2.76184e-05 1.75099e-05
8.50877e-06 2.48074e-05 1.69115e-05
1.12173e-05 2.26416e-05 1.65297e-05
1.40049e-05 2.10226e-05 1.65251e-05
1.72221e-05 1.97939e-05 1.68854e-05
2.11155e-05 1.86348e-05 1.75257e-05
0 0 0
0 0 0
0 0 0
0 0 0
0 0 0
0 0 0
2.48917e-08 3.01549e-05 -1.80345e-05
-2.11411e-05 1.87128e-05 -1.755e-05
-1.72329e-05 1.98343e-05 -1.69211e-05
-1.40073e-05 2.10547e-05 -1.65553e-05
-1.12071e-05 2.26654e-05 -1.65491e-05
-8.52424e-06 2.48335e-05 -1.69017e-05
-5.56786e-06 2.76223e-05 -1.75377e-05
-2.64504e-05 1.46794e-05 -1.80337e-05
-2.67693e-05 -9.01179e-06 -1.75777e-05
-2.58068e-05 -5.03564e-06 -1.69263e-05
-2.52551e-05 -1.63626e-06 -1.65717e-05
-2.52581e-05 1.6079e-06 -1.65747e-05
-2.57991e-05 5.02303e-06 -1.69245e-05
-2.67555e-05 8.98487e-06 -1.75642e-05
-2.64373e-05 -1.47258e-05 -1.80625e-05
-5.54112e-06 -2.76368e-05 -1.753e-05
-8.47676e-06 -2.48425e-05 -1.6901e-05
-1.11703e-05 -2.26848e-05 -1.65565e-05
-1.39709e-05 -2.10878e-05 -1.65599e-05
-1.72154e-05 -1.98696e-05 -1.6937e-05
-2.11347e-05 -1.87495e-05 -1.75625e-05
8.98364e-08 -3.01397e-05 -1.80296e-05
2.11245e-05 -1.86252e-05 -1.75117e-05
1.72451e-05 -1.97626e-05 -1.68732e-05
1.40342e-05 -2.10117e-05 -1.65119e-05
1.12253e-05 -2.25935e-05 -1.65465e-05
8.5814e-06 -2.47807e-05 -1.68745e-05
5.65473e-06 -2.76271e-05 -1.75353e-05
2.61251e-05 -1.506e-05 -1.80286e-05
2.67174e-05 8.93866e-06 -1.75018e-05
2.57226e-05 5.04976e-06 -1.69087e-05
2.52072e-05 1.62338e-06 -1.65235e-05
2.52043e-05 -1.59949e-06 -1.65218e-05
2.57513e-05 -4.99755e-06 -1.68886e-05
2.66994e-05 -8.91742e-06 -1.751e-05
2.61081e-05 1.50611e-05 -1.80257e-05
5.63319e-06 2.76184e-05 -1.75099e-05
8.50877e-06 2.48074e-05 -1.69115e-05
1.12173e-05 2.26416e-05 -1.65297e-05
1.40049e-05 2.10226e-05 -1.65251e-05
1.72221e-05 1.97939e-05 -1.68854e-05
2.11155e-05 1.86348e-05 -1.75257e-05
0 0 0
0 0 0
0 0 0
0 0 0
0 0 0
0 0 0
1.79371e-06 8.58761e-07 4.55235e-06
1.73785e-06 -8.25128e-07 4.4609e-06
4.31961e-07 1.84966e-06 4.49522e-06
4.36105e-07 -1.78066e-06 4.35619e-06
-1.84752e-06 2.09636e-08 4.42246e-06
-1.12311e-06 -1.3089e-06 4.15109e-06
-1.15923e-06 1.30682e-06 4.19987e-06
-2.25135e-05 -7.28786e-06 1.70002e-05
-2.21969e-05 7.37175e-06 1.69689e-05
-4.86053e-06 2.2899e-05 1.69373e-05
-4.85804e-06 -2.31321e-05 1.69642e-05
1.74216e-05 1.56358e-05 1.69301e-05
1.75692e-05 -1.55368e-05 1.69394e-05
2.1074e-05 3.16396e-06 1.63247e-05
-1.39535e-05 1.71516e-05 1.64787e-05
-1.35915e-05 -1.67416e-05 1.64102e-05
7.76801e-06 1.982e-05 1.63315e-05
7.68503e-06 -2.03104e-05 1.64028e-05
2.14728e-05 -3.44382e-06 1.64005e-05
-2.11032e-05 6.58811e-09 1.6247e-05
-2.24208e-05 1.1e-05 1.74539e-05
-1.87513e-05 9.2549e-06 1.66273e-05
-1.79832e-05 5.79558e-06 1.60366e-05
-1.49843e-05 7.4485e-06 1.54866e-05
-1.42248e-05 4.30782e-06 1.48299e-05
-1.15329e-05 5.74401e-06 1.40949e-05
-1.08583e-05 3.0688e-06 1.33738e-05
-8.40067e-06 4.30497e-06 1.24045e-05
-9.059e-06 7.01356e-06 1.34565e-05
-6.20424e-06 5.48863e-06 1.16891e-05
-6.82845e-06 8.24962e-06 1.30801e-05
-4.28149e-06 6.67505e-06 1.14506e-05
-4.80012e-06 9.61014e-06 1.30941e-05
-2.40092e-06 7.99352e-06 1.17231e-05
-2.81291e-06 1.11675e-05 1.34751e-05
-4.75421e-07 9.5955e-06 1.25011e-05
-7.38371e-07 1.29972e-05 1.41419e-05
1.73112e-06 1.1518e-05 1.35352e-05
-5.53481e-06 1.27007e-05 1.44371e-05
1.68512e-06 8.22415e-06 1.17477e-05
4.00427e-06 1.01211e-05 1.31511e-05
3.70543e-06 7.0981e-06 1.14784e-05
6.06754e-06 8.96687e-06 1.31135e-05
5.76694e-06 6.10692e-06 1.17357e-05
8.35827e-06 8.0205e-06 1.34922e-05
8.10583e-06 5.19538e-06 1.25005e-05
1.09542e-05 7.09721e-06 1.41472e-05
1.07462e-05 4.32289e-06 1.34992e-05
8.53072e-06 1.10377e-05 1.4461e-05
7.93786e-06 2.6438e-06 1.17276e-05
1.06462e-05 1.73724e-06 1.31042e-05
7.94886e-06 3.58768e-07 1.14557e-05
1.08066e-05 -7.5913e-07 1.31243e-05
8.11182e-06 -1.93784e-06 1.17093e-05
1.10985e-05 -3.31293e-06 1.34841e-05
8.46992e-06 -4.42408e-06 1.24442e-05
1.1504e-05 -6.00302e-06 1.41096e-05
8.95577e-06 -7.13827e-06 1.34282e-05
6.14766e-06 -5.49454e-06 1.16414e-05
6.64465e-06 -8.30105e-06 1.30184e-05
4.10529e-06 -6.58865e-06 1.13111e-05
4.52346e-06 -9.55108e-06 1.29885e-05
2.24234e-06 -7.85846e-06 1.15975e-05
2.48489e-06 -1.10021e-05 1.33511e-05
2.25295e-07 -9.3739e-06 1.23538e-05
3.3002e-07 -1.27701e-05 1.4034e-05
-1.91548e-06 -1.1151e-05 1.33772e-05
-1.84111e-06 -7.92179e-06 1.15823e-05
-4.16799e-06 -9.87508e-06 1.30852e-05
-3.81402e-06 -6.73065e-06 1.13173e-05
-6.34577e-06 -8.66222e-06 1.30995e-05
-5.89143e-06 -5.69814e-06 1.16286e-05
-8.49992e-06 -7.43597e-06 1.33799e-05
-8.16773e-06 -4.72817e-06 1.24088e-05
-1.10959e-05 -6.40292e-06 1.40701e-05
-4.37176e-06 -1.31235e-05 1.44339e-05
-1.08091e-05 -3.65077e-06 1.34394e-05
7.22629e-06 -1.1373e-05 1.42732e-05
-7.74188e-06 1.98273e-06 1.14931e-05
-1.32164e-05 1.03508e-06 1.42112e-05
1.72916e-06 1.50832e-05 1.49525e-05
1.37684e-05 4.62249e-07 1.4388e-05
1.38435e-05 6.10025e-06 1.4932e-05
-9.6943e-06 1.01965e-05 1.45328e-05
-5.41613e-06 -3.19773e-06 1.01823e-05
-1.17139e-05 -9.29756e-06 1.48895e-05
1.18827e-05 -8.76042e-06 1.47874e-05
1.47821e-05 -7.47379e-06 1.54036e-05
-1.39601e-05 -5.24402e-06 1.4862e-05
2.79589e-06 -1.45165e-05 1.47965e-05
4.24571e-07 -1.64998e-05 1.53981e-05
3.51851e-06 4.39704e-06 9.58132e-06
1.40109e-05 9.29929e-06 1.54919e-05
1.79312e-05 8.14516e-06 1.63009e-05
-1.56758e-05 1.13956e-05 1.62338e-05
-1.09411e-06 1.67695e-05 1.54956e-05
1.9069e-06 1.96221e-05 1.63113e-05
-2.09192e-06 5.2202e-06 9.59782e-06
5.55407e-06 -7.84622e-07 9.59437e-06
3.58604e-06 -3.68365e-06 9.08219e-06
-1.77968e-06 -5.17869e-06 9.44983e-06
-2.24693e-05 -1.10111e-05 1.74746e-05
-1.87986e-05 -9.24165e-06 1.66514e-05
2.11483e-05 1.41651e-05 1.75059e-05
2.07543e-05 -1.43179e-05 1.74359e-05
-1.76463e-06 -2.54471e-05 1.75112e-05
-1.68216e-06 2.54111e-05 1.75159e-05
1.77134e-05 -1.19072e-05 1.66875e-05
2.06462e-05 -1.07513e-05 1.71163e-05
3.77573e-06 -1.89856e-05 1.61397e-05
7.68545e-07 -2.03463e-05 1.64832e-05
-1.94055e-05 -1.26508e-05 1.71435e-05
-1.37314e-05 -2.30698e-06 1.44722e-05
-1.65931e-05 -3.70152e-06 1.54779e-05
-1.03761e-05 -1.09641e-06 1.29524e-05
2.44526e-05 1.10731e-05 1.76519e-05
2.54981e-05 -1.24035e-05 1.78484e-05
2.64928e-06 2.67266e-05 1.76608e-05
2.52103e-06 -2.64142e-05 1.76297e-05
3.33953e-06 -2.30324e-05 1.70294e-05
-2.05394e-06 -1.83203e-05 1.59512e-05
4.05914e-06 2.37919e-05 1.71307e-05
2.26147e-05 8.37947e-06 1.71196e-05
4.61371e-06 1.73138e-05 1.57276e-05
1.44273e-05 -1.31198e-05 1.61377e-05
-1.5788e-05 -1.0985e-05 1.62149e-05
-1.68002e-05 -3.81438e-07 1.53777e-05
1.73063e-05 4.68759e-06 1.5726e-05
6.5523e-08 -6.38745e-06 1.02677e-05
1.74175e-06 -4.84856e-06 9.09269e-06
5.85059e-06 -2.93557e-06 1.03784e-05
-2.14447e-05 3.7506e-06 1.64592e-05
5.72949e-06 -1.62749e-05 1.5508e-05
9.08367e-06 -1.74994e-05 1.59978e-05
1.75726e-05 1.18819e-05 1.66726e-05
1.39945e-05 -1.63826e-05 1.64015e-05
1.07402e-05 -1.37893e-05 1.55504e-05
-3.54804e-06 -4.22028e-06 9.50098e-06
5.39923e-06 1.13852e-06 9.49926e-06
5.21816e-06 3.22294e-06 1.00475e-05
-1.7498e-06 -2.83551e-05 1.78771e-05
1.8921e-06 5.299e-06 9.58466e-06
-1.13826e-07 6.10513e-06 1.0039e-05
-3.785e-06 4.12782e-06 9.57862e-06
-5.62279e-06 3.03425e-06 1.02855e-05
-5.16557e-06 1.04069e-06 9.21381e-06
-7.5274e-06 -6.17405e-08 1.11726e-05
-4.33446e-06 -8.10293e-07 8.38204e-06
-3.10864e-06 1.87237e-06 7.37423e-06
-2.20816e-05 -3.60785e-06 1.65161e-05
2.34067e-05 -1.56882e-05 1.78364e-05
-1.50723e-06 2.11683e-05 1.66823e-05
2.12621e-05 -8.45218e-08 1.62261e-05
1.76225e-05 -1.64684e-06 1.55817e-05
1.73481e-05 -4.94178e-06 1.5771e-05
2.1892e-05 -7.45128e-06 1.69139e-05
-2.31826e-05 -1.42548e-05 1.7833e-05
1.7325e-05 1.64891e-06 1.55088e-05
-1.73401e-06 2.84736e-05 1.78944e-05
-4.22079e-07 3.68349e-06 7.49547e-06
2.37724e-05 1.57426e-05 1.78848e-05
-1.74977e-05 1.56425e-05 1.69752e-05
-1.06265e-05 -1.84665e-05 1.62554e-05
-1.00998e-05 -1.43426e-05 1.5572e-05
-7.50794e-06 -1.60952e-05 1.56224e-05
-7.32228e-06 -2.01209e-05 1.63956e-05
-1.07047e-05 1.85356e-05 1.62671e-05
-1.03476e-05 1.43844e-05 1.56197e-05
-7.7728e-06 2.04929e-05 1.64445e-05
-4.25308e-06 1.86101e-05 1.60533e-05
1.07599e-05 1.83458e-05 1.62265e-05
1.3892e-05 1.69353e-05 1.64313e-05
1.40423e-05 1.29732e-05 1.60516e-05
-7.36174e-06 1.62887e-05 1.56388e-05
1.05254e-05 1.45473e-05 1.56455e-05
7.74892e-06 1.60927e-05 1.56142e-05
-3.11652e-06 -1.8988e-06 7.39335e-06
-7.25781e-06 -1.24223e-05 1.46255e-05
3.00872e-06 4.03609e-08 6.60113e-06
4.87269e-06 1.3523e-05 1.46184e-05
1.40763e-05 -2.26044e-06 1.45708e-05
-1.72901e-05 -1.5217e-05 1.69458e-05
-1.73669e-05 2.42036e-06 1.55981e-05
-1.2205e-05 8.91214e-06 1.49438e-05
-7.7058e-06 -2.29257e-06 1.15549e-05
-1.24501e-05 1.18129e-05 1.55403e-05
-1.42738e-07 -3.7543e-06 7.55436e-06
2.73028e-06 2.27212e-06 7.2521e-06
-2.00391e-06 -1.46508e-05 1.48084e-05
9.36531e-06 -1.00685e-05 1.43897e-05
1.38611e-05 3.15789e-06 1.45664e-05
-7.34021e-06 1.11996e-05 1.42606e-05
4.99734e-06 -1.27751e-05 1.43696e-05
1.10321e-05 1.04308e-05 1.492e-05
-3.59653e-06 1.46856e-05 1.49084e-05
-4.63558e-06 -1.66173e-05 1.55492e-05
-1.95075e-05 1.28927e-05 1.71616e-05
-2.31274e-05 1.48585e-05 1.78437e-05
-1.29052e-05 -1.26864e-05 1.58129e-05
3.76088e-06 -1.58616e-06 7.90714e-06
1.76443e-06 2.92234e-06 7.08461e-06
-9.2307e-06 -1.06097e-05 1.45321e-05
1.72778e-06 -2.82321e-06 6.93124e-06
9.94745e-07 2.41174e-05 1.73088e-05
2.13685e-05 1.11941e-05 1.7299e-05
-1.4665e-05 -7.95358e-06 1.54857e-05
1.37084e-05 -4.78644e-06 1.4691e-05
-1.90992e-06 -2.17635e-05 1.68031e-05
1.80608e-05 -8.41927e-06 1.63411e-05
-1.66793e-05 -6.32873e-06 1.57828e-05
-4.32909e-07 -1.92236e-06 4.79859e-06
-1.80541e-06 2.9955e-06 7.17736e-06
-2.50525e-05 -1.29821e-05 1.79226e-05
-2.51277e-05 -1.45076e-05 1.80024e-05
-2.50457e-05 1.3034e-05 1.79063e-05
-2.51186e-05 1.46503e-05 1.79825e-05
-1.64849e-06 -3.12491e-06 7.21009e-06
6.32811e-06 1.13687e-05 1.40769e-05
5.33718e-07 -2.40867e-05 1.73026e-05
-5.22788e-07 1.80958e-06 4.64513e-06
7.40765e-06 -1.4344e-05 1.51527e-05
2.33034e-05 -1.32096e-05 1.77291e-05
2.36332e-05 -1.05378e-05 1.74912e-05
1.19887e-05 -1.82114e-05 1.62937e-05
1.47305e-05 -1.01469e-05 1.5796e-05
-1.00273e-05 1.00127e-06 1.2755e-05
-1.74005e-06 -8.15918e-07 4.72357e-06
7.69081e-07 3.70843e-06 7.57334e-06
2.34312e-06 -1.9972e-06 6.55546e-06
2.0157e-05 5.89799e-06 1.6454e-05
5.07021e-06 2.05965e-05 1.64964e-05
3.42119e-07 -2.76807e-05 1.78543e-05
-1.73126e-06 7.09126e-07 4.60644e-06
-3.21158e-06 6.23061e-07 6.82432e-06
3.57729e-06 1.47545e-06 7.63682e-06
4.99228e-07 2.83245e-05 1.79276e-05
2.47609e-05 1.37344e-05 1.79187e-05
-2.03289e-05 1.55362e-05 1.74294e-05
1.17873e-06 1.3645e-06 4.45997e-06
-2.06401e-05 -1.57288e-05 1.7528e-05
-1.89994e-05 -2.32225e-06 1.59466e-05
-1.95597e-05 -5.58514e-06 1.63326e-05
9.05702e-07 -3.24783e-06 7.00628e-06
-4.36613e-06 -1.97898e-05 1.63222e-05
-7.93749e-06 1.38348e-05 1.51015e-05
1.16577e-06 -1.30421e-06 4.3394e-06
1.19348e-05 -1.12287e-05 1.52926e-05
6.1332e-06 -2.26967e-05 1.68209e-05
-1.45225e-05 1.43557e-05 1.6324e-05
7.92929e-06 1.33216e-05 1.49484e-05
1.79371e-06 8.58761e-07 -4.55235e-06
1.73785e-06 -8.25128e-07 -4.4609e-06
4.31961e-07 1.84966e-06 -4.49522e-06
4.36105e-07 -1.78066e-06 -4.35619e-06
-1.84752e-06 2.09636e-08 -4.42246e-06
-1.12311e-06 -1.3089e-06 -4.15109e-06
-1.15923e-06 1.30682e-06 -4.19987e-06
-2.25135e-05 -7.28786e-06 -1.70002e-05
-2.21969e-05 7.37175e-06 -1.69689e-05
-4.86053e-06 2.2899e-05 -1.69373e-05
-4.85804e-06 -2.31321e-05 -1.69642e-05
1.74216e-05 1.56358e-05 -1.69301e-05
1.75692e-05 -1.55368e-05 -1.69394e-05
2.1074e-05 3.16396e-06 -1.63247e-05
-1.39535e-05 1.71516e-05 -1.64787e-05
-1.35915e-05 -1.67416e-05 -1.64102e-05
7.76801e-06 1.982e-05 -1.63315e-05
7.68503e-06 -2.03104e-05 -1.64028e-05
2.14728e-05 -3.44382e-06 -1.64005e-05
-2.11032e-05 6.58811e-09 -1.6247e-05
-2.24208e-05 1.1e-05 -1.74539e-05
-1.87513e-05 9.2549e-06 -1.66273e-05
-1.79832e-05 5.79558e-06 -1.60366e-05
-1.49843e-05 7.4485e-06 -1.54866e-05
-1.42248e-05 4.30782e-06 -1.48299e-05
-1.15329e-05 5.74401e-06 -1.40949e-05
-1.08583e-05 3.0688e-06 -1.33738e-05
-8.40067e-06 4.30497e-06 -1.24045e-05
-9.059e-06 7.01356e-06 -1.34565e-05
-6.20424e-06 5.48863e-06 -1.16891e-05
-6.82845e-06 8.24962e-06 -1.30801e-05
-4.28149e-06 6.67505e-06 -1.14506e-05
-4.80012e-06 9.61014e-06 -1.30941e-05
-2.40092e-06 7.99352e-06 -1.17231e-05
-2.81291e-06 1.11675e-05 -1.34751e-05
-4.75421e-07 9.5955e-06 -1.25011e-05
-7.38371e-07 1.29972e-05 -1.41419e-05
1.73112e-06 1.1518e-05 -1.35352e-05
-5.53481e-06 1.27007e-05 -1.44371e-05
1.68512e-06 8.22415e-06 -1.17477e-05
4.00427e-06 1.01211e-05 -1.31511e-05
3.70543e-06 7.0981e-06 -1.14784e-05
6.06754e-06 8.96687e-06 -1.31135e-05
5.76694e-06 6.10692e-06 -1.17357e-05
8.35827e-06 8.0205e-06 -1.34922e-05
8.10583e-06 5.19538e-06 -1.25005e-05
1.09542e-05 7.09721e-06 -1.41472e-05
1.07462e-05 4.32289e-06 -1.34992e-05
8.53072e-06 1.10377e-05 -1.4461e-05
7.93786e-06 2.6438e-06 -1.17276e-05
1.06462e-05 1.73724e-06 -1.31042e-05
7.94886e-06 3.58768e-07 -1.14557e-05
1.08066e-05 -7.5913e-07 -1.31243e-05
8.11182e-06 -1.93784e-06 -1.17093e-05
1.10985e-05 -3.31293e-06 -1.34841e-05
8.46992e-06 -4.42408e-06 -1.24442e-05
1.1504e-05 -6.00302e-06 -1.41096e-05
8.95577e-06 -7.13827e-06 -1.34282e-05
6.14766e-06 -5.49454e-06 -1.16414e-05
6.64465e-06 -8.30105e-06 -1.30184e-05
4.10529e-06 -6.58865e-06 -1.13111e-05
4.52346e-06 -9.55108e-06 -1.29885e-05
2.24234e-06 -7.85846e-06 -1.15975e-05
2.48489e-06 -1.10021e-05 -1.33511e-05
2.25295e-07 -9.3739e-06 -1.23538e-05
3.3002e-07 -1.27701e-05 -1.4034e-05
-1.91548e-06 -1.1151e-05 -1.33772e-05
-1.84111e-06 -7.92179e-06 -1.15823e-05
-4.16799e-06 -9.87508e-06 -1.30852e-05
-3.81402e-06 -6.73065e-06 -1.13173e-05
-6.34577e-06 -8.66222e-06 -1.30995e-05
-5.89143e-06 -5.69814e-06 -1.16286e-05
-8.49992e-06 -7.43597e-06 -1.33799e-05
-8.16773e-06 -4.72817e-06 -1.24088e-05
-1.10959e-05 -6.40292e-06 -1.40701e-05
-4.37176e-06 -1.31235e-05 -1.44339e-05
-1.08091e-05 -3.65077e-06 -1.34394e-05
7.22629e-06 -1.1373e-05 -1.42732e-05
-7.74188e-06 1.98273e-06 -1.14931e-05
-1.32164e-05 1.03508e-06 -1.42112e-05
1.72916e-06 1.50832e-05 -1.49525e-05
1.37684e-05 4.62249e-07 -1.4388e-05
1.38435e-05 6.10025e-06 -1.4932e-05
-9.6943e-06 1.01965e-05 -1.45328e-05
-5.41613e-06 -3.19773e-06 -1.01823e-05
-1.17139e-05 -9.29756e-06 -1.48895e-05
1.18827e-05 -8.76042e-06 -1.47874e-05
1.47821e-05 -7.47379e-06 -1.54036e-05
-1.39601e-05 -5.24402e-06 -1.4862e-05
2.79589e-06 -1.45165e-05 -1.47965e-05
4.24571e-07 -1.64998e-05 -1.53981e-05
3.51851e-06 4.39704e-06 -9.58132e-06
1.40109e-05 9.29929e-06 -1.54919e-05
1.79312e-05 8.14516e-06 -1.63009e-05
-1.56758e-05 1.13956e-05 -1.62338e-05
-1.09411e-06 1.67695e-05 -1.54956e-05
1.9069e-06 1.96221e-05 -1.63113e-05
-2.09192e-06 5.2202e-06 -9.59782e-06
5.55407e-06 -7.84622e-07 -9.59437e-06
3.58604e-06 -3.68365e-06 -9.08219e-06
-1.77968e-06 -5.17869e-06 -9.44983e-06
-2.24693e-05 -1.10111e-05 -1.74746e-05
-1.87986e-05 -9.24165e-06 -1.66514e-05
2.11483e-05 1.41651e-05 -1.75059e-05
2.07543e-05 -1.43179e-05 -1.74359e-05
-1.76463e-06 -2.54471e-05 -1.75112e-05
-1.68216e-06 2.54111e-05 -1.75159e-05
1.77134e-05 -1.19072e-05 -1.66875e-05
2.06462e-05 -1.07513e-05 -1.71163e-05
3.77573e-06 -1.89856e-05 -1.61397e-05
7.68545e-07 -2.03463e-05 -1.64832e-05
-1.94055e-05 -1.26508e-05 -1.71435e-05
-1.37314e-05 -2.30698e-06 -1.44722e-05
-1.65931e-05 -3.70152e-06 -1.54779e-05
-1.03761e-05 -1.09641e-06 -1.29524e-05
2.44526e-05 1.10731e-05 -1.76519e-05
2.54981e-05 -1.24035e-05 -1.78484e-05
2.64928e-06 2.67266e-05 -1.76608e-05
2.52103e-06 -2.64142e-05 -1.76297e-05
3.33953e-06 -2.30324e-05 -1.70294e-05
-2.05394e-06 -1.83203e-05 -1.59512e-05
4.05914e-06 2.37919e-05 -1.71307e-05
2.26147e-05 8.37947e-06 -1.71196e-05
4.61371e-06 1.73138e-05 -1.57276e-05
1.44273e-05 -1.31198e-05 -1.61377e-05
-1.5788e-05 -1.0985e-05 -1.62149e-05
-1.68002e-05 -3.81438e-07 -1.53777e-05
1.73063e-05 4.68759e-06 -1.5726e-05
6.5523e-08 -6.38745e-06 -1.02677e-05
1.74175e-06 -4.84856e-06 -9.09269e-06
5.85059e-06 -2.93557e-06 -1.03784e-05
-2.14447e-05 3.7506e-06 -1.64592e-05
5.72949e-06 -1.62749e-05 -1.5508e-05
9.08367e-06 -1.74994e-05 -1.59978e-05
1.75726e-05 1.18819e-05 -1.66726e-05
1.39945e-05 -1.63826e-05 -1.64015e-05
1.07402e-05 -1.37893e-05 -1.55504e-05
-3.54804e-06 -4.22028e-06 -9.50098e-06
5.39923e-06 1.13852e-06 -9.49926e-06
5.21816e-06 3.22294e-06 -1.00475e-05
-1.7498e-06 -2.83551e-05 -1.78771e-05
1.8921e-06 5.299e-06 -9.58466e-06
-1.13826e-07 6.10513e-06 -1.0039e-05
-3.785e-06 4.12782e-06 -9.57862e-06
-5.62279e-06 3.03425e-06 -1.02855e-05
-5.16557e-06 1.04069e-06 -9.21381e-06
-7.5274e-06 -6.17405e-08 -1.11726e-05
-4.33446e-06 -8.10293e-07 -8.38204e-06
-3.10864e-06 1.87237e-06 -7.37423e-06
-2.20816e-05 -3.60785e-06 -1.65161e-05
2.34067e-05 -1.56882e-05 -1.78364e-05
-1.50723e-06 2.11683e-05 -1.66823e-05
2.12621e-05 -8.45218e-08 -1.62261e-05
1.76225e-05 -1.64684e-06 -1.55817e-05
1.73481e-05 -4.94178e-06 -1.5771e-05
2.1892e-05 -7.45128e-06 -1.69139e-05
-2.31826e-05 -1.42548e-05 -1.7833e-05
1.7325e-05 1.64891e-06 -1.55088e-05
-1.73401e-06 2.84736e-05 -1.78944e-05