# vtk DataFile Version 3.0
vtk output at time 350
ASCII
DATASET UNSTRUCTURED_GRID
POINTS 626 float
-3.68058e-05 0.000978749 0 3.68058e-05 0.000978749 0 -0.000829194 0.00052125 0 
-0.0008235 0.0005 0 -0.000866 0.0004575 0 -0.000866 -0.0004575 0 
-0.0008235 -0.0005 0 -0.000829194 -0.00052125 0 -3.68058e-05 -0.000978749 0 
3.68058e-05 -0.000978749 0 0.000829194 -0.00052125 0 0.000866 -0.0004575 0 
0.000866 0.0004575 0 0.000829194 0.00052125 0 8.5e-05 0 0 
-3.68058e-05 0.000978749 -0.001 3.68058e-05 0.000978749 -0.001 -0.000829194 0.00052125 -0.001 
-0.0008235 0.0005 -0.001 -0.000866 0.0004575 -0.001 -0.000866 -0.0004575 -0.001 
-0.0008235 -0.0005 -0.001 -0.000829194 -0.00052125 -0.001 -3.68058e-05 -0.000978749 -0.001 
3.68058e-05 -0.000978749 -0.001 0.000829194 -0.00052125 -0.001 0.000866 -0.0004575 -0.001 
0.000866 0.0004575 -0.001 0.000829194 0.00052125 -0.001 8.5e-05 0 -0.001 
8.46223e-17 0.0009575 0 -0.000715996 0.000586607 0 -0.000602797 0.000651965 0 
-0.000489599 0.000717321 0 -0.000376401 0.000782678 0 -0.000263202 0.000848036 0 
-0.000150004 0.000913393 0 -0.000835948 0.000469948 0 -0.000866 -0.000326786 0 
-0.000866 -0.000196071 0 -0.000866 -6.53571e-05 0 -0.000866 6.53571e-05 0 
-0.000866 0.000196071 0 -0.000866 0.000326786 0 -0.000835948 -0.000469948 0 
-0.000150004 -0.000913393 0 -0.000263202 -0.000848036 0 -0.000376401 -0.000782678 0 
-0.000489599 -0.000717321 0 -0.000602797 -0.000651965 0 -0.000715996 -0.000586607 0 
8.47648e-17 -0.0009575 0 0.000715996 -0.000586607 0 0.000602797 -0.000651965 0 
0.000489599 -0.000717321 0 0.000376401 -0.000782678 0 0.000263202 -0.000848036 0 
0.000150004 -0.000913393 0 0.000829194 -0.00047875 0 0.000866 0.000326786 0 
0.000866 0.000196071 0 0.000866 6.53571e-05 0 0.000866 -6.53571e-05 0 
0.000866 -0.000196071 0 0.000866 -0.000326786 0 0.000829194 0.00047875 0 
0.000150004 0.000913393 0 0.000263202 0.000848036 0 0.000376401 0.000782678 0 
0.000489599 0.000717321 0 0.000602797 0.000651965 0 0.000715996 0.000586607 0 
5.29966e-05 6.64557e-05 0 -1.89143e-05 8.28689e-05 0 -7.65824e-05 3.68801e-05 0 
-7.65824e-05 -3.68801e-05 0 -1.89143e-05 -8.28689e-05 0 5.29966e-05 -6.64557e-05 0 
8.46223e-17 0.0009575 -0.001 -0.000715996 0.000586607 -0.001 -0.000602797 0.000651965 -0.001 
-0.000489599 0.000717321 -0.001 -0.000376401 0.000782678 -0.001 -0.000263202 0.000848036 -0.001 
-0.000150004 0.000913393 -0.001 -0.000835948 0.000469948 -0.001 -0.000866 -0.000326786 -0.001 
-0.000866 -0.000196071 -0.001 -0.000866 -6.53571e-05 -0.001 -0.000866 6.53571e-05 -0.001 
-0.000866 0.000196071 -0.001 -0.000866 0.000326786 -0.001 -0.000835948 -0.000469948 -0.001 
-0.000150004 -0.000913393 -0.001 -0.000263202 -0.000848036 -0.001 -0.000376401 -0.000782678 -0.001 
-0.000489599 -0.000717321 -0.001 -0.000602797 -0.000651965 -0.001 -0.000715996 -0.000586607 -0.001 
8.47648e-17 -0.0009575 -0.001 0.000715996 -0.000586607 -0.001 0.000602797 -0.000651965 -0.001 
0.000489599 -0.000717321 -0.001 0.000376401 -0.000782678 -0.001 0.000263202 -0.000848036 -0.001 
0.000150004 -0.000913393 -0.001 0.000829194 -0.00047875 -0.001 0.000866 0.000326786 -0.001 
0.000866 0.000196071 -0.001 0.000866 6.53571e-05 -0.001 0.000866 -6.53571e-05 -0.001 
0.000866 -0.000196071 -0.001 0.000866 -0.000326786 -0.001 0.000829194 0.00047875 -0.001 
0.000150004 0.000913393 -0.001 0.000263202 0.000848036 -0.001 0.000376401 0.000782678 -0.001 
0.000489599 0.000717321 -0.001 0.000602797 0.000651965 -0.001 0.000715996 0.000586607 -0.001 
5.29966e-05 6.64557e-05 -0.001 -1.89143e-05 8.28689e-05 -0.001 -7.65824e-05 3.68801e-05 -0.001 
-7.65824e-05 -3.68801e-05 -0.001 -1.89143e-05 -8.28689e-05 -0.001 5.29966e-05 -6.64557e-05 -0.001 
0.000131234 6.38474e-05 0 0.00012964 -6.2443e-05 0 3.13827e-05 0.0001394 0 
3.12554e-05 -0.000136939 0 -0.000140461 8.25467e-19 0 -8.90565e-05 -0.000102707 0 
-9.04142e-05 0.000102872 0 -0.000765769 -0.00025965 0 -0.000756873 0.000262774 0 
-0.00015609 0.000787505 0 -0.000155807 -0.00079355 0 0.000605069 0.000528035 0 
0.000608694 -0.00052497 0 0.000744069 0.000116929 0 -0.000494418 0.000596218 0 
-0.000483866 -0.000584648 0 0.000269496 0.000702219 0 0.000263201 -0.000717324 0 
0.000754429 -0.000127825 0 -0.000748858 5.84659e-07 0 -0.000747838 0.000373886 0 
-0.0006542 0.000324842 0 -0.000645137 0.000210123 0 -0.000550884 0.000274171 0 
-0.000538857 0.000163195 0 -0.00045062 0.000224461 0 -0.000438393 0.000123907 0 
-0.000354088 0.000181668 0 -0.000363908 0.000282171 0 -0.000270361 0.000239477 0 
-0.000279138 0.000337653 0 -0.000188888 0.000294791 0 -0.000196448 0.000393271 0 
-0.000104767 0.000348259 0 -0.000113332 0.000449012 0 -2.01066e-05 0.000403223 0 
-2.89189e-05 0.000507105 0 6.9524e-05 0.000461596 0 -0.000213644 0.000490203 0 
7.33757e-05 0.000357726 0 0.000163331 0.00041299 0 0.000163359 0.000313022 0 
0.000248077 0.000366368 0 0.000250914 0.000265758 0 0.000335709 0.000322266 0 
0.000340555 0.000218148 0 0.000427299 0.000276717 0 0.000431508 0.000173093 0 
0.000328731 0.000425633 0 0.00034586 0.000114823 0 0.000435362 7.05241e-05 0 
0.000350892 1.5455e-05 0 0.000441547 -3.11896e-05 0 0.000353547 -8.47783e-05 0 
0.000445767 -0.000132964 0 0.000356135 -0.000186358 0 0.000449094 -0.000234674 0 
0.000359978 -0.000287876 0 0.00026856 -0.000240545 0 0.000271895 -0.000341045 0 
0.000181792 -0.00029305 0 0.00018533 -0.000392851 0 9.75701e-05 -0.00034483 0 
9.98764e-05 -0.000444884 0 8.75116e-06 -0.000396343 0 1.20916e-05 -0.000500496 0 
-7.83929e-05 -0.000449843 0 -8.1471e-05 -0.000347249 0 -0.000171566 -0.000403733 0 
-0.000169889 -0.000298891 0 -0.000259867 -0.000354132 0 -0.000257696 -0.000249137 0 
-0.00034313 -0.000299896 0 -0.000344514 -0.000199127 0 -0.000434309 -0.000250039 0 
-0.000169832 -0.000505815 0 -0.000435227 -0.000146227 0 0.000280331 -0.000442424 0 
-0.000340889 8.76793e-05 0 -0.000515252 4.06198e-05 0 6.50491e-05 0.000568253 0 
0.00053278 1.74743e-05 0 0.000522071 0.000229831 0 -0.00037162 0.000391659 0 
-0.000255272 -0.000150439 0 -0.000442893 -0.000350705 0 0.000450067 -0.000332559 0 
0.000545175 -0.000276306 0 -0.000527797 -0.000197598 0 0.000105306 -0.000551033 0 
1.45836e-05 -0.000609147 0 0.00017145 0.000214453 0 0.000515525 0.000341711 0 
0.000636086 0.000290368 0 -0.000558657 0.000404468 0 -4.01232e-05 0.000616718 0 
6.60192e-05 0.000696422 0 -0.000101806 0.0002546 0 0.000271142 -3.88908e-05 0 
0.000179455 -0.00018534 0 -8.79553e-05 -0.000254307 0 -0.000749267 -0.000373451 0 
-0.000655941 -0.000323397 0 0.000709746 0.000466718 0 0.000698426 -0.000473086 0 
-5.25801e-05 -0.00084886 0 -4.93005e-05 0.000848038 0 0.000617396 -0.000413362 0 
0.000702056 -0.000369817 0 0.000131459 -0.000679171 0 2.48171e-05 -0.000715924 0 
-0.000664217 -0.00042729 0 -0.000528828 -8.80444e-05 0 -0.000611101 -0.000136672 0 
-0.000426972 -4.45841e-05 0 0.000800669 0.000378216 0 0.000821144 -0.000415062 0 
7.2799e-05 0.00088254 0 6.81831e-05 -0.00087503 0 0.000104963 -0.000788946 0 
-7.40696e-05 -0.000660054 0 0.000126061 0.000809943 0 0.000764361 0.000295682 0 
0.000166862 0.000630623 0 0.000516462 -0.00046707 0 -0.000563585 -0.000389606 0 
-0.000622598 -1.40238e-05 0 0.000629891 0.000171529 0 2.5614e-06 -0.000299794 0 
8.6901e-05 -0.00024329 0 0.000272045 -0.000136982 0 -0.00075148 0.000138321 0 
0.000209366 -0.000599589 0 0.000324913 -0.000630055 0 0.000614044 0.00041245 0 
0.00049651 -0.000573327 0 0.000394822 -0.000507321 0 -0.000173714 -0.000206698 0 
0.000264897 5.63722e-05 0 0.000247997 0.000152811 0 -4.63327e-05 -0.000920208 0 
9.18688e-05 0.000258626 0 -5.54111e-06 0.000290558 0 -0.000184219 0.000201484 0 
-0.000263559 0.000142267 0 -0.000256427 5.13624e-05 0 -0.000336894 -2.06179e-06 0 
-0.000228499 -4.2388e-05 0 -0.00017589 0.000106626 0 -0.000769947 -0.000133367 0 
0.000767591 -0.000500293 0 -5.05874e-05 0.000737978 0 0.000754456 -3.51771e-06 0 
0.00064691 -6.15298e-05 0 0.000630483 -0.00018134 0 0.000749187 -0.000265543 0 
-0.000760805 -0.000462521 0 0.000638155 6.09315e-05 0 -4.46661e-05 0.000922995 0 
-2.37945e-05 0.000207237 0 0.000776979 0.000500181 0 -0.000605691 0.000527596 0 
-0.000377914 -0.000653727 0 -0.000372325 -0.000526022 0 -0.000275829 -0.000589621 0 
-0.000254285 -0.000710579 0 -0.000379307 0.000656222 0 -0.000379818 0.00052718 0 
-0.000266817 0.000721555 0 -0.000150544 0.000668174 0 0.000381963 0.00065079 0 
0.000493113 0.000590432 0 0.000505439 0.000463708 0 -0.000269094 0.000596608 0 
0.000385815 0.000532045 0 0.000283599 0.0005899 0 -0.000176405 -0.000108505 0 
-0.000278769 -0.000475415 0 0.000185395 2.33014e-06 0 0.000186773 0.000517571 0 
0.000540032 -8.68444e-05 0 -0.000600694 -0.000514877 0 -0.00063703 8.98033e-05 0 
-0.000459677 0.000335729 0 -0.000338836 -0.000100751 0 -0.000457327 0.000432721 0 
-8.72007e-06 -0.000210238 0 0.000156073 0.000129496 0 -7.70692e-05 -0.000555049 0 
0.00036091 -0.000389728 0 0.000531628 0.000120564 0 -0.000285451 0.000435562 0 
0.000192719 -0.000494604 0 0.00041642 0.00039368 0 -0.000135943 0.000554637 0 
-0.000170665 -0.000610079 0 -0.000666304 0.000434981 0 -0.000758736 0.000479231 0 
-0.000470189 -0.000458901 0 0.000203433 -8.59809e-05 0 0.000101846 0.000170114 0 
-0.00035513 -0.00040726 0 0.000100184 -0.000165831 0 2.96286e-05 0.00081537 0 
0.000720946 0.000381836 0 -0.000539809 -0.000292001 0 0.00052211 -0.000182426 0 
-6.41339e-05 -0.000753908 0 0.000638039 -0.000299861 0 -0.000605136 -0.000230182 0 
-3.41638e-05 -0.000145561 0 -0.000104037 0.000172396 0 -0.000808575 -0.00042774 0 
-0.000807207 -0.000465052 0 -0.00080817 0.000429771 0 -0.000806589 0.000469738 0 
-9.50634e-05 -0.000178909 0 0.000247777 0.000445058 0 1.48293e-05 -0.000814201 0 
-4.11555e-05 0.000140955 0 0.000276104 -0.000536845 0 0.000765969 -0.000436638 0 
0.000780871 -0.000362769 0 0.000424176 -0.000642018 0 0.00053413 -0.000368009 0 
-0.000416333 4.17911e-05 0 -0.000133891 -6.23822e-05 0 4.2574e-05 0.000206312 0 
[...]
POINT_DATA 626
VECTORS displacement float
-1.74395e-06 3.09541e-05 1.80549e-05
1.73566e-06 3.09732e-05 1.81e-05
-2.5986e-05 1.69927e-05 1.80869e-05
-2.58406e-05 1.60329e-05 1.80515e-05
-2.77204e-05 1.39726e-05 1.80689e-05
-2.77134e-05 -1.40189e-05 1.80944e-05
-2.58118e-05 -1.6071e-05 1.81057e-05
-2.59822e-05 -1.70108e-05 1.81669e-05
-1.67741e-06 -3.09579e-05 1.80513e-05
1.75545e-06 -3.09594e-05 1.81017e-05
2.59434e-05 -1.69805e-05 1.80433e-05
2.77167e-05 -1.39365e-05 1.80432e-05
2.76722e-05 1.39892e-05 1.80915e-05
2.59147e-05 1.69928e-05 1.80459e-05
0 0 0
-1.74395e-06 3.09541e-05 -1.80549e-05
1.73566e-06 3.09732e-05 -1.81e-05
-2.5986e-05 1.69927e-05 -1.80869e-05
-2.58406e-05 1.60329e-05 -1.80515e-05
-2.77204e-05 1.39726e-05 -1.80689e-05
-2.77134e-05 -1.40189e-05 -1.80944e-05
-2.58118e-05 -1.6071e-05 -1.81057e-05
-2.59822e-05 -1.70108e-05 -1.81669e-05
-1.67741e-06 -3.09579e-05 -1.80513e-05
1.75545e-06 -3.09594e-05 -1.81017e-05
2.59434e-05 -1.69805e-05 -1.80433e-05
2.77167e-05 -1.39365e-05 -1.80432e-05
2.76722e-05 1.39892e-05 -1.80915e-05
2.59147e-05 1.69928e-05 -1.80459e-05
0 0 0
2.48956e-08 3.0154e-05 1.8034e-05
-2.11403e-05 1.87122e-05 1.75496e-05
-1.72323e-05 1.98336e-05 1.69206e-05
-1.40067e-05 2.10539e-05 1.65547e-05
-1.12067e-05 2.26645e-05 1.65486e-05
-8.524e-06 2.48325e-05 1.69011e-05
-5.56776e-06 2.76214e-05 1.75373e-05
-2.64496e-05 1.4679e-05 1.80333e-05
-2.67684e-05 -9.01139e-06 1.75772e-05
-2.58059e-05 -5.03538e-06 1.69258e-05
-2.52541e-05 -1.63618e-06 1.65712e-05
-2.52571e-05 1.60782e-06 1.65741e-05
-2.57982e-05 5.02278e-06 1.6924e-05
-2.67546e-05 8.98447e-06 1.75637e-05
-2.64365e-05 -1.47253e-05 1.80621e-05
-5.54102e-06 -2.76358e-05 1.75295e-05
-8.47651e-06 -2.48415e-05 1.69005e-05
-1.11699e-05 -2.2684e-05 1.65559e-05
-1.39704e-05 -2.1087e-05 1.65593e-05
-1.72147e-05 -1.98689e-05 1.69364e-05
-2.11339e-05 -1.8749e-05 1.7562e-05
8.98416e-08 -3.01388e-05 1.80292e-05
2.11237e-05 -1.86246e-05 1.75113e-05
1.72444e-05 -1.97619e-05 1.68726e-05
1.40337e-05 -2.10109e-05 1.65113e-05
1.12249e-05 -2.25927e-05 1.65459e-05
8.58116e-06 -2.47797e-05 1.68739e-05
5.65465e-06 -2.76261e-05 1.75348e-05
2.61243e-05 -1.50595e-05 1.80282e-05
2.67165e-05 8.93826e-06 1.75013e-05
2.57217e-05 5.0495e-06 1.69082e-05
2.52062e-05 1.62329e-06 1.65229e-05
2.52033e-05 -1.5994e-06 1.65212e-05
2.57503e-05 -4.99729e-06 1.68881e-05
2.66986e-05 -8.91701e-06 1.75095e-05
2.61073e-05 1.50607e-05 1.80252e-05
5.63311e-06 2.76175e-05 1.75094e-05
8.50853e-06 2.48064e-05 1.6911e-05
1.12169e-05 2.26407e-05 1.65291e-05
1.40043e-05 2.10219e-05 1.65245e-05
1.72214e-05 1.97932e-05 1.68849e-05
2.11147e-05 1.86342e-05 1.75252e-05
0 0 0
0 0 0
0 0 0
0 0 0
0 0 0
0 0 0
2.48956e-08 3.0154e-05 -1.8034e-05
-2.11403e-05 1.87122e-05 -1.75496e-05
-1.72323e-05 1.98336e-05 -1.69206e-05
-1.40067e-05 2.10539e-05 -1.65547e-05
-1.12067e-05 2.26645e-05 -1.65486e-05
-8.524e-06 2.48325e-05 -1.69011e-05
-5.56776e-06 2.76214e-05 -1.75373e-05
-2.64496e-05 1.4679e-05 -1.80333e-05
-2.67684e-05 -9.01139e-06 -1.75772e-05
-2.58059e-05 -5.03538e-06 -1.69258e-05
-2.52541e-05 -1.63618e-06 -1.65712e-05
-2.52571e-05 1.60782e-06 -1.65741e-05
-2.57982e-05 5.02278e-06 -1.6924e-05
-2.67546e-05 8.98447e-06 -1.75637e-05
-2.64365e-05 -1.47253e-05 -1.80621e-05
-5.54102e-06 -2.76358e-05 -1.75295e-05
-8.47651e-06 -2.48415e-05 -1.69005e-05
-1.11699e-05 -2.2684e-05 -1.65559e-05
-1.39704e-05 -2.1087e-05 -1.65593e-05
-1.72147e-05 -1.98689e-05 -1.69364e-05
-2.11339e-05 -1.8749e-05 -1.7562e-05
8.98416e-08 -3.01388e-05 -1.80292e-05
2.11237e-05 -1.86246e-05 -1.75113e-05
1.72444e-05 -1.97619e-05 -1.68726e-05
1.40337e-05 -2.10109e-05 -1.65113e-05
1.12249e-05 -2.25927e-05 -1.65459e-05
8.58116e-06 -2.47797e-05 -1.68739e-05
5.65465e-06 -2.76261e-05 -1.75348e-05
2.61243e-05 -1.50595e-05 -1.80282e-05
2.67165e-05 8.93826e-06 -1.75013e-05
2.57217e-05 5.0495e-06 -1.69082e-05
2.52062e-05 1.62329e-06 -1.65229e-05
2.52033e-05 -1.5994e-06 -1.65212e-05
2.57503e-05 -4.99729e-06 -1.68881e-05
2.66986e-05 -8.91701e-06 -1.75095e-05
2.61073e-05 1.50607e-05 -1.80252e-05
5.63311e-06 2.76175e-05 -1.75094e-05
8.50853e-06 2.48064e-05 -1.6911e-05
1.12169e-05 2.26407e-05 -1.65291e-05
1.40043e-05 2.10219e-05 -1.65245e-05
1.72214e-05 1.97932e-05 -1.68849e-05
2.11147e-05 1.86342e-05 -1.75252e-05
0 0 0
0 0 0
0 0 0
0 0 0
0 0 0
0 0 0
1.79366e-06 8.58736e-07 4.55218e-06
1.7378e-06 -8.25105e-07 4.46073e-06
4.31949e-07 1.8496e-06 4.49505e-06
4.36093e-07 -1.78061e-06 4.35602e-06
-1.84747e-06 2.09628e-08 4.4223e-06
-1.12307e-06 -1.30886e-06 4.15094e-06
-1.15919e-06 1.30678e-06 4.19972e-06
-2.25127e-05 -7.28756e-06 1.69997e-05
-2.21961e-05 7.37145e-06 1.69684e-05
-4.86038e-06 2.28982e-05 1.69368e-05
-4.8579e-06 -2.31313e-05 1.69637e-05
1.7421e-05 1.56352e-05 1.69296e-05
1.75685e-05 -1.55362e-05 1.69389e-05
2.10732e-05 3.16382e-06 1.63241e-05
-1.39529e-05 1.7151e-05 1.64781e-05
-1.3591e-05 -1.6741e-05 1.64097e-05
7.76773e-06 1.98192e-05 1.63309e-05
7.68476e-06 -2.03096e-05 1.64022e-05
2.1472e-05 -3.44367e-06 1.63999e-05
-2.11024e-05 6.58808e-09 1.62464e-05
-2.24201e-05 1.09996e-05 1.74534e-05
-1.87506e-05 9.25456e-06 1.66268e-05
-1.79825e-05 5.79536e-06 1.6036e-05
-1.49837e-05 7.44821e-06 1.54861e-05
-1.42242e-05 4.30765e-06 1.48294e-05
-1.15324e-05 5.74379e-06 1.40944e-05
-1.08578e-05 3.06869e-06 1.33732e-05
-8.40035e-06 4.30481e-06 1.2404e-05
-9.05866e-06 7.01329e-06 1.3456e-05
-6.20401e-06 5.48842e-06 1.16887e-05
-6.82819e-06 8.24931e-06 1.30796e-05
-4.28133e-06 6.6748e-06 1.14502e-05
-4.79993e-06 9.60977e-06 1.30936e-05
-2.40083e-06 7.99322e-06 1.17226e-05
-2.81281e-06 1.1167e-05 1.34746e-05
-4.75402e-07 9.59514e-06 1.25006e-05
-7.38342e-07 1.29967e-05 1.41414e-05
1.73105e-06 1.15176e-05 1.35346e-05
-5.5346e-06 1.27002e-05 1.44366e-05
1.68505e-06 8.22385e-06 1.17473e-05
4.00411e-06 1.01207e-05 1.31506e-05
3.70529e-06 7.09784e-06 1.14779e-05
6.06731e-06 8.96653e-06 1.3113e-05
5.76673e-06 6.1067e-06 1.17353e-05
8.35795e-06 8.0202e-06 1.34917e-05
8.10552e-06 5.19519e-06 1.25e-05
1.09538e-05 7.09694e-06 1.41466e-05
1.07458e-05 4.32273e-06 1.34987e-05
8.53039e-06 1.10373e-05 1.44604e-05
7.93757e-06 2.6437e-06 1.17271e-05
1.06458e-05 1.73717e-06 1.31037e-05
7.94856e-06 3.58755e-07 1.14553e-05
1.08062e-05 -7.59101e-07 1.31238e-05
8.11152e-06 -1.93777e-06 1.17088e-05
1.10981e-05 -3.3128e-06 1.34836e-05
8.4696e-06 -4.42391e-06 1.24437e-05
1.15035e-05 -6.00279e-06 1.41091e-05
8.95543e-06 -7.138e-06 1.34277e-05
6.14743e-06 -5.49433e-06 1.1641e-05
6.64439e-06 -8.30073e-06 1.30179e-05
4.10514e-06 -6.58841e-06 1.13106e-05
4.52329e-06 -9.55072e-06 1.2988e-05
2.24226e-06 -7.85817e-06 1.15971e-05
2.4848e-06 -1.10017e-05 1.33506e-05
2.25288e-07 -9.37355e-06 1.23533e-05
3.30009e-07 -1.27696e-05 1.40335e-05
-1.91541e-06 -1.11505e-05 1.33767e-05
-1.84104e-06 -7.9215e-06 1.15819e-05
-4.16783e-06 -9.8747e-06 1.30847e-05
-3.81388e-06 -6.7304e-06 1.13168e-05
-6.34552e-06 -8.66189e-06 1.3099e-05
-5.89121e-06 -5.69793e-06 1.16281e-05
-8.49959e-06 -7.43569e-06 1.33794e-05
-8.16743e-06 -4.72799e-06 1.24083e-05
-1.10955e-05 -6.40267e-06 1.40696e-05
-4.37159e-06 -1.3123e-05 1.44334e-05
-1.08087e-05 -3.65063e-06 1.34389e-05
7.22601e-06 -1.13726e-05 1.42727e-05
-7.74159e-06 1.98266e-06 1.14927e-05
-1.32159e-05 1.03504e-06 1.42106e-05
1.7291e-06 1.50826e-05 1.49519e-05
1.37679e-05 4.62231e-07 1.43875e-05
1.3843e-05 6.10001e-06 1.49314e-05
-9.69392e-06 1.01961e-05 1.45322e-05
-5.41594e-06 -3.19761e-06 1.01819e-05
-1.17134e-05 -9.29721e-06 1.48889e-05
1.18822e-05 -8.76009e-06 1.47869e-05
1.47816e-05 -7.4735e-06 1.54031e-05
-1.39595e-05 -5.24382e-06 1.48614e-05
2.79578e-06 -1.45159e-05 1.47959e-05
4.24558e-07 -1.64992e-05 1.53975e-05
3.51839e-06 4.39689e-06 9.58094e-06
1.40104e-05 9.29893e-06 1.54914e-05
1.79306e-05 8.14485e-06 1.63003e-05
-1.56753e-05 1.13952e-05 1.62333e-05
-1.09407e-06 1.67689e-05 1.54951e-05
1.90684e-06 1.96214e-05 1.63108e-05
-2.09184e-06 5.22002e-06 9.59744e-06
5.55388e-06 -7.84594e-07 9.59399e-06
3.58591e-06 -3.68352e-06 9.08183e-06
-1.77962e-06 -5.17851e-06 9.44946e-06
-2.24685e-05 -1.10107e-05 1.74741e-05
-1.87979e-05 -9.2413e-06 1.66509e-05
2.11476e-05 1.41646e-05 1.75054e-05
2.07535e-05 -1.43174e-05 1.74354e-05
-1.76459e-06 -2.54462e-05 1.75108e-05
-1.68212e-06 2.54103e-05 1.75154e-05
1.77128e-05 -1.19067e-05 1.6687e-05
2.06455e-05 -1.07509e-05 1.71158e-05
3.7756e-06 -1.89849e-05 1.61392e-05
7.68524e-07 -2.03455e-05 1.64827e-05
-1.94048e-05 -1.26504e-05 1.7143e-05
-1.37309e-05 -2.30689e-06 1.44716e-05
-1.65925e-05 -3.70138e-06 1.54773e-05
-1.03757e-05 -1.09637e-06 1.29519e-05
2.44518e-05 1.10726e-05 1.76515e-05
2.54973e-05 -1.24031e-05 1.7848e-05
2.64924e-06 2.67257e-05 1.76603e-05
2.52099e-06 -2.64133e-05 1.76292e-05
3.33944e-06 -2.30316e-05 1.70289e-05
-2.05387e-06 -1.83196e-05 1.59507e-05
4.05903e-06 2.3791e-05 1.71302e-05
2.26139e-05 8.37913e-06 1.71191e-05
4.61354e-06 1.73131e-05 1.5727e-05
1.44268e-05 -1.31193e-05 1.61372e-05
-1.57875e-05 -1.09846e-05 1.62143e-05
-1.67995e-05 -3.81422e-07 1.53771e-05
1.73057e-05 4.68741e-06 1.57254e-05
6.55213e-08 -6.38722e-06 1.02673e-05
1.74169e-06 -4.84839e-06 9.09233e-06
5.85038e-06 -2.93547e-06 1.0378e-05
-2.14439e-05 3.75044e-06 1.64586e-05
5.72928e-06 -1.62742e-05 1.55075e-05
9.08332e-06 -1.74987e-05 1.59972e-05
1.75719e-05 1.18815e-05 1.66721e-05
1.3994e-05 -1.6382e-05 1.6401e-05
1.07398e-05 -1.37888e-05 1.55498e-05
-3.54792e-06 -4.22013e-06 9.5006e-06
5.39904e-06 1.13848e-06 9.49889e-06
5.21797e-06 3.22283e-06 1.00471e-05
-1.74978e-06 -2.83541e-05 1.78767e-05
1.89203e-06 5.29881e-06 9.58428e-06
-1.13822e-07 6.10491e-06 1.00386e-05
-3.78486e-06 4.12768e-06 9.57824e-06
-5.62259e-06 3.03414e-06 1.02851e-05
-5.16539e-06 1.04066e-06 9.21345e-06
-7.52713e-06 -6.17381e-08 1.11722e-05
-4.33431e-06 -8.10266e-07 8.38171e-06
-3.10854e-06 1.87231e-06 7.37394e-06
-2.20808e-05 -3.60768e-06 1.65156e-05
2.34059e-05 -1.56878e-05 1.78359e-05
-1.50718e-06 2.11676e-05 1.66818e-05
2.12613e-05 -8.4518e-08 1.62255e-05
1.76218e-05 -1.64677e-06 1.55812e-05
1.73474e-05 -4.94159e-06 1.57704e-05
2.18912e-05 -7.45098e-06 1.69134e-05
-2.31819e-05 -1.42544e-05 1.78325e-05
1.73243e-05 1.64884e-06 1.55083e-05
-1.73399e-06 2.84727e-05 1.78939e-05
-4.22066e-07 3.68337e-06 7.49518e-06
2.37716e-05 1.57421e-05 1.78844e-05
-1.74971e-05 1.5642e-05 1.69747e-05
-1.0626e-05 -1.84658e-05 1.62548e-05
-1.00994e-05 -1.43421e-05 1.55714e-05
-7.50764e-06 -1.60946e-05 1.56218e-05
-7.32201e-06 -2.01202e-05 1.6395e-05
-1.07043e-05 1.85349e-05 1.62665e-05
-1.03471e-05 1.43839e-05 1.56191e-05
-7.77252e-06 2.04921e-05 1.6444e-05
-4.25293e-06 1.86094e-05 1.60527e-05
1.07595e-05 1.83451e-05 1.62259e-05
1.38914e-05 1.69346e-05 1.64308e-05
1.40417e-05 1.29727e-05 1.6051e-05
-7.36145e-06 1.6288e-05 1.56383e-05
1.0525e-05 1.45468e-05 1.5645e-05
7.74862e-06 1.6092e-05 1.56137e-05
-3.11642e-06 -1.89874e-06 7.39306e-06
-7.25753e-06 -1.24218e-05 1.46249e-05
3.00862e-06 4.03596e-08 6.60087e-06
4.8725e-06 1.35225e-05 1.46178e-05
1.40758e-05 -2.26035e-06 1.45702e-05
-1.72895e-05 -1.52165e-05 1.69453e-05
-1.73662e-05 2.42026e-06 1.55976e-05
-1.22045e-05 8.9118e-06 1.49432e-05
-7.70551e-06 -2.29249e-06 1.15545e-05
-1.24496e-05 1.18125e-05 1.55397e-05
-1.42734e-07 -3.75418e-06 7.55406e-06
2.7302e-06 2.27205e-06 7.25182e-06
-2.00383e-06 -1.46503e-05 1.48078e-05
9.36495e-06 -1.00681e-05 1.43892e-05
1.38605e-05 3.15776e-06 1.45659e-05
-7.33993e-06 1.11992e-05 1.42601e-05
4.99714e-06 -1.27746e-05 1.4369e-05
1.10317e-05 1.04303e-05 1.49194e-05
-3.59639e-06 1.46851e-05 1.49078e-05
-4.6354e-06 -1.66166e-05 1.55486e-05
-1.95068e-05 1.28923e-05 1.71611e-05
-2.31266e-05 1.4858e-05 1.78433e-05
-1.29047e-05 -1.26859e-05 1.58123e-05
3.76075e-06 -1.5861e-06 7.90683e-06
1.76437e-06 2.92225e-06 7.08433e-06
-9.23035e-06 -1.06093e-05 1.45316e-05
1.72772e-06 -2.82312e-06 6.93097e-06
9.94724e-07 2.41166e-05 1.73083e-05
2.13677e-05 1.11937e-05 1.72985e-05
-1.46644e-05 -7.95328e-06 1.54851e-05
1.37079e-05 -4.78625e-06 1.46904e-05
-1.90986e-06 -2.17627e-05 1.68026e-05
1.80602e-05 -8.41895e-06 1.63405e-05
-1.66787e-05 -6.32848e-06 1.57822e-05
-4.32896e-07 -1.9223e-06 4.79841e-06
-1.80535e-06 2.99541e-06 7.17708e-06
-2.50517e-05 -1.29817e-05 1.79221e-05
-2.5127e-05 -1.45071e-05 1.8002e-05
-2.50449e-05 1.30336e-05 1.79059e-05
-2.51178e-05 1.46498e-05 1.7982e-05
-1.64844e-06 -3.12481e-06 7.20981e-06
6.32786e-06 1.13682e-05 1.40764e-05
5.33708e-07 -2.40858e-05 1.73021e-05
-5.22773e-07 1.80953e-06 4.64495e-06
7.40736e-06 -1.43435e-05 1.51522e-05
2.33026e-05 -1.32092e-05 1.77287e-05
2.36324e-05 -1.05374e-05 1.74907e-05
1.19883e-05 -1.82107e-05 1.62931e-05
1.47299e-05 -1.01465e-05 1.57954e-05
-1.00269e-05 1.00123e-06 1.27545e-05
-1.74e-06 -8.15894e-07 4.72339e-06
7.69056e-07 3.70831e-06 7.57304e-06
2.34305e-06 -1.99714e-06 6.5552e-06
2.01563e-05 5.89775e-06 1.64534e-05
5.07004e-06 2.05957e-05 1.64958e-05
3.42117e-07 -2.76797e-05 1.78539e-05
-1.73121e-06 7.09105e-07 4.60627e-06
-3.21147e-06 6.23042e-07 6.82405e-06
3.57718e-06 1.4754e-06 7.63652e-06
4.99225e-07 2.83235e-05 1.79271e-05
2.47601e-05 1.37339e-05 1.79183e-05
-2.03281e-05 1.55357e-05 1.74289e-05
1.1787e-06 1.36446e-06 4.4598e-06
-2.06394e-05 -1.57283e-05 1.75275e-05
-1.89987e-05 -2.32215e-06 1.5946e-05
-1.95589e-05 -5.58492e-06 1.63321e-05
9.05674e-07 -3.24772e-06 7.00601e-06
-4.36598e-06 -1.97891e-05 1.63217e-05
-7.93718e-06 1.38342e-05 1.51009e-05
1.16574e-06 -1.30417e-06 4.33924e-06
1.19343e-05 -1.12282e-05 1.5292e-05
6.13301e-06 -2.26958e-05 1.68203e-05
-1.4522e-05 1.43552e-05 1.63235e-05
7.92898e-06 1.33211e-05 1.49478e-05
1.79366e-06 8.58736e-07 -4.55218e-06
1.7378e-06 -8.25105e-07 -4.46073e-06
4.31949e-07 1.8496e-06 -4.49505e-06
4.36093e-07 -1.78061e-06 -4.35602e-06
-1.84747e-06 2.09628e-08 -4.4223e-06
-1.12307e-06 -1.30886e-06 -4.15094e-06
-1.15919e-06 1.30678e-06 -4.19972e-06
-2.25127e-05 -7.28756e-06 -1.69997e-05
-2.21961e-05 7.37145e-06 -1.69684e-05
-4.86038e-06 2.28982e-05 -1.69368e-05
-4.8579e-06 -2.31313e-05 -1.69637e-05
1.7421e-05 1.56352e-05 -1.69296e-05
1.75685e-05 -1.55362e-05 -1.69389e-05
2.10732e-05 3.16382e-06 -1.63241e-05
-1.39529e-05 1.7151e-05 -1.64781e-05
-1.3591e-05 -1.6741e-05 -1.64097e-05
7.76773e-06 1.98192e-05 -1.63309e-05
7.68476e-06 -2.03096e-05 -1.64022e-05
2.1472e-05 -3.44367e-06 -1.63999e-05
-2.11024e-05 6.58808e-09 -1.62464e-05
-2.24201e-05 1.09996e-05 -1.74534e-05
-1.87506e-05 9.25456e-06 -1.66268e-05
-1.79825e-05 5.79536e-06 -1.6036e-05
-1.49837e-05 7.44821e-06 -1.54861e-05
-1.42242e-05 4.30765e-06 -1.48294e-05
-1.15324e-05 5.74379e-06 -1.40944e-05
-1.08578e-05 3.06869e-06 -1.33732e-05
-8.40035e-06 4.30481e-06 -1.2404e-05
-9.05866e-06 7.01329e-06 -1.3456e-05
-6.20401e-06 5.48842e-06 -1.16887e-05
-6.82819e-06 8.24931e-06 -1.30796e-05
-4.28133e-06 6.6748e-06 -1.14502e-05
-4.79993e-06 9.60977e-06 -1.30936e-05
-2.40083e-06 7.99322e-06 -1.17226e-05
-2.81281e-06 1.1167e-05 -1.34746e-05
-4.75402e-07 9.59514e-06 -1.25006e-05
-7.38342e-07 1.29967e-05 -1.41414e-05
1.73105e-06 1.15176e-05 -1.35346e-05
-5.5346e-06 1.27002e-05 -1.44366e-05
1.68505e-06 8.22385e-06 -1.17473e-05
4.00411e-06 1.01207e-05 -1.31506e-05
3.70529e-06 7.09784e-06 -1.14779e-05
6.06731e-06 8.96653e-06 -1.3113e-05
5.76673e-06 6.1067e-06 -1.17353e-05
8.35795e-06 8.0202e-06 -1.34917e-05
8.10552e-06 5.19519e-06 -1.25e-05
1.09538e-05 7.09694e-06 -1.41466e-05
1.07458e-05 4.32273e-06 -1.34987e-05
8.53039e-06 1.10373e-05 -1.44604e-05
7.93757e-06 2.6437e-06 -1.17271e-05
1.06458e-05 1.73717e-06 -1.31037e-05
7.94856e-06 3.58755e-07 -1.14553e-05
1.08062e-05 -7.59101e-07 -1.31238e-05
8.11152e-06 -1.93777e-06 -1.17088e-05
1.10981e-05 -3.3128e-06 -1.34836e-05
8.4696e-06 -4.42391e-06 -1.24437e-05
1.15035e-05 -6.00279e-06 -1.41091e-05
8.95543e-06 -7.138e-06 -1.34277e-05
6.14743e-06 -5.49433e-06 -1.1641e-05
6.64439e-06 -8.30073e-06 -1.30179e-05
4.10514e-06 -6.58841e-06 -1.13106e-05
4.52329e-06 -9.55072e-06 -1.2988e-05
2.24226e-06 -7.85817e-06 -1.15971e-05
2.4848e-06 -1.10017e-05 -1.33506e-05
2.25288e-07 -9.37355e-06 -1.23533e-05
3.30009e-07 -1.27696e-05 -1.40335e-05
-1.91541e-06 -1.11505e-05 -1.33767e-05
-1.84104e-06 -7.9215e-06 -1.15819e-05
-4.16783e-06 -9.8747e-06 -1.30847e-05
-3.81388e-06 -6.7304e-06 -1.13168e-05
-6.34552e-06 -8.66189e-06 -1.3099e-05
-5.89121e-06 -5.69793e-06 -1.16281e-05
-8.49959e-06 -7.43569e-06 -1.33794e-05
-8.16743e-06 -4.72799e-06 -1.24083e-05
-1.10955e-05 -6.40267e-06 -1.40696e-05
-4.37159e-06 -1.3123e-05 -1.44334e-05
-1.08087e-05 -3.65063e-06 -1.34389e-05
7.22601e-06 -1.13726e-05 -1.42727e-05
-7.74159e-06 1.98266e-06 -1.14927e-05
-1.32159e-05 1.03504e-06 -1.42106e-05
1.7291e-06 1.50826e-05 -1.49519e-05
1.37679e-05 4.62231e-07 -1.43875e-05
1.3843e-05 6.10001e-06 -1.49314e-05
-9.69392e-06 1.01961e-05 -1.45322e-05
-5.41594e-06 -3.19761e-06 -1.01819e-05
-1.17134e-05 -9.29721e-06 -1.48889e-05
1.18822e-05 -8.76009e-06 -1.47869e-05
1.47816e-05 -7.4735e-06 -1.54031e-05
-1.39595e-05 -5.24382e-06 -1.48614e-05
2.79578e-06 -1.45159e-05 -1.47959e-05
4.24558e-07 -1.64992e-05 -1.53975e-05
3.51839e-06 4.39689e-06 -9.58094e-06
1.40104e-05 9.29893e-06 -1.54914e-05
1.79306e-05 8.14485e-06 -1.63003e-05
-1.56753e-05 1.13952e-05 -1.62333e-05
-1.09407e-06 1.67689e-05 -1.54951e-05
1.90684e-06 1.96214e-05 -1.63108e-05
-2.09184e-06 5.22002e-06 -9.59744e-06
5.55388e-06 -7.84594e-07 -9.59399e-06
3.58591e-06 -3.68352e-06 -9.08183e-06
-1.77962e-06 -5.17851e-06 -9.44946e-06
-2.24685e-05 -1.10107e-05 -1.74741e-05
-1.87979e-05 -9.2413e-06 -1.66509e-05
2.11476e-05 1.41646e-05 -1.75054e-05
2.07535e-05 -1.43174e-05 -1.74354e-05
-1.76459e-06 -2.54462e-05 -1.75108e-05
-1.68212e-06 2.54103e-05 -1.75154e-05
1.77128e-05 -1.19067e-05 -1.6687e-05
2.06455e-05 -1.07509e-05 -1.71158e-05
3.7756e-06 -1.89849e-05 -1.61392e-05
7.68524e-07 -2.03455e-05 -1.64827e-05
-1.94048e-05 -1.26504e-05 -1.7143e-05
-1.37309e-05 -2.30689e-06 -1.44716e-05
-1.65925e-05 -3.70138e-06 -1.54773e-05
-1.03757e-05 -1.09637e-06 -1.29519e-05
2.44518e-05 1.10726e-05 -1.76515e-05
2.54973e-05 -1.24031e-05 -1.7848e-05
2.64924e-06 2.67257e-05 -1.76603e-05
2.52099e-06 -2.64133e-05 -1.76292e-05
3.33944e-06 -2.30316e-05 -1.70289e-05
-2.05387e-06 -1.83196e-05 -1.59507e-05
4.05903e-06 2.3791e-05 -1.71302e-05
2.26139e-05 8.37913e-06 -1.71191e-05
4.61354e-06 1.73131e-05 -1.5727e-05
1.44268e-05 -1.31193e-05 -1.61372e-05
-1.57875e-05 -1.09846e-05 -1.62143e-05
-1.67995e-05 -3.81422e-07 -1.53771e-05
1.73057e-05 4.68741e-06 -1.57254e-05
6.55213e-08 -6.38722e-06 -1.02673e-05
1.74169e-06 -4.84839e-06 -9.09233e-06
5.85038e-06 -2.93547e-06 -1.0378e-05
-2.14439e-05 3.75044e-06 -1.64586e-05
5.72928e-06 -1.62742e-05 -1.55075e-05
9.08332e-06 -1.74987e-05 -1.59972e-05
1.75719e-05 1.18815e-05 -1.66721e-05
1.3994e-05 -1.6382e-05 -1.6401e-05
1.07398e-05 -1.37888e-05 -1.55498e-05
-3.54792e-06 -4.22013e-06 -9.5006e-06
5.39904e-06 1.13848e-06 -9.49889e-06
5.21797e-06 3.22283e-06 -1.00471e-05
-1.74978e-06 -2.83541e-05 -1.78767e-05
1.89203e-06 5.29881e-06 -9.58428e-06
-1.13822e-07 6.10491e-06 -1.00386e-05
-3.78486e-06 4.12768e-06 -9.57824e-06
-5.62259e-06 3.03414e-06 -1.02851e-05
-5.16539e-06 1.04066e-06 -9.21345e-06
-7.52713e-06 -6.17381e-08 -1.11722e-05
-4.33431e-06 -8.10266e-07 -8.38171e-06
-3.10854e-06 1.87231e-06 -7.37394e-06
-2.20808e-05 -3.60768e-06 -1.65156e-05
2.34059e-05 -1.56878e-05 -1.78359e-05
-1.50718e-06 2.11676e-05 -1.66818e-05
2.12613e-05 -8.4518e-08 -1.62255e-05
1.76218e-05 -1.64677e-06 -1.55812e-05
1.73474e-05 -4.94159e-06 -1.57704e-05
2.18912e-05 -7.45098e-06 -1.69134e-05
-2.31819e-05 -1.42544e-05 -1.78325e-05
1.73243e-05 1.64884e-06 -1.55083e-05
-1.73399e-06 2.84727e-05 -1.78939e-05