# vtk DataFile Version 3.0
vtk output at time 120
ASCII
DATASET UNSTRUCTURED_GRID
POINTS 626 float
-3.68058e-05 0.000978749 0 3.68058e-05 0.000978749 0 -0.000829194 0.00052125 0 
-0.0008235 0.0005 0 -0.000866 0.0004575 0 -0.000866 -0.0004575 0 
-0.0008235 -0.0005 0 -0.000829194 -0.00052125 0 -3.68058e-05 -0.000978749 0 
3.68058e-05 -0.000978749 0 0.000829194 -0.00052125 0 0.000866 -0.0004575 0 
0.000866 0.0004575 0 0.000829194 0.00052125 0 8.5e-05 0 0 
-3.68058e-05 0.000978749 -0.001 3.68058e-05 0.000978749 -0.001 -0.000829194 0.00052125 -0.001 
-0.0008235 0.0005 -0.001 -0.000866 0.0004575 -0.001 -0.000866 -0.0004575 -0.001 
-0.0008235 -0.0005 -0.001 -0.000829194 -0.00052125 -0.001 -3.68058e-05 -0.000978749 -0.001 
3.68058e-05 -0.000978749 -0.001 0.000829194 -0.00052125 -0.001 0.000866 -0.0004575 -0.001 
0.000866 0.0004575 -0.001 0.000829194 0.00052125 -0.001 8.5e-05 0 -0.001 
8.46223e-17 0.0009575 0 -0.000715996 0.000586607 0 -0.000602797 0.000651965 0 
-0.000489599 0.000717321 0 -0.000376401 0.000782678 0 -0.000263202 0.000848036 0 
-0.000150004 0.000913393 0 -0.000835948 0.000469948 0 -0.000866 -0.000326786 0 
-0.000866 -0.000196071 0 -0.000866 -6.53571e-05 0 -0.000866 6.53571e-05 0 
-0.000866 0.000196071 0 -0.000866 0.000326786 0 -0.000835948 -0.000469948 0 
-0.000150004 -0.000913393 0 -0.000263202 -0.000848036 0 -0.000376401 -0.000782678 0 
-0.000489599 -0.000717321 0 -0.000602797 -0.000651965 0 -0.000715996 -0.000586607 0 
8.47648e-17 -0.0009575 0 0.000715996 -0.000586607 0 0.000602797 -0.000651965 0 
0.000489599 -0.000717321 0 0.000376401 -0.000782678 0 0.000263202 -0.000848036 0 
0.000150004 -0.000913393 0 0.000829194 -0.00047875 0 0.000866 0.000326786 0 
0.000866 0.000196071 0 0.000866 6.53571e-05 0 0.000866 -6.53571e-05 0 
0.000866 -0.000196071 0 0.000866 -0.000326786 0 0.000829194 0.00047875 0 
0.000150004 0.000913393 0 0.000263202 0.000848036 0 0.000376401 0.000782678 0 
0.000489599 0.000717321 0 0.000602797 0.000651965 0 0.000715996 0.000586607 0 
5.29966e-05 6.64557e-05 0 -1.89143e-05 8.28689e-05 0 -7.65824e-05 3.68801e-05 0 
-7.65824e-05 -3.68801e-05 0 -1.89143e-05 -8.28689e-05 0 5.29966e-05 -6.64557e-05 0 
8.46223e-17 0.0009575 -0.001 -0.000715996 0.000586607 -0.001 -0.000602797 0.000651965 -0.001 
-0.000489599 0.000717321 -0.001 -0.000376401 0.000782678 -0.001 -0.000263202 0.000848036 -0.001 
-0.000150004 0.000913393 -0.001 -0.000835948 0.000469948 -0.001 -0.000866 -0.000326786 -0.001 
-0.000866 -0.000196071 -0.001 -0.000866 -6.53571e-05 -0.001 -0.000866 6.53571e-05 -0.001 
-0.000866 0.000196071 -0.001 -0.000866 0.000326786 -0.001 -0.000835948 -0.000469948 -0.001 
-0.000150004 -0.000913393 -0.001 -0.000263202 -0.000848036 -0.001 -0.000376401 -0.000782678 -0.001 
-0.000489599 -0.000717321 -0.001 -0.000602797 -0.000651965 -0.001 -0.000715996 -0.000586607 -0.001 
8.47648e-17 -0.0009575 -0.001 0.000715996 -0.000586607 -0.001 0.000602797 -0.000651965 -0.001 
0.000489599 -0.000717321 -0.001 0.000376401 -0.000782678 -0.001 0.000263202 -0.000848036 -0.001 
0.000150004 -0.000913393 -0.001 0.000829194 -0.00047875 -0.001 0.000866 0.000326786 -0.001 
0.000866 0.000196071 -0.001 0.000866 6.53571e-05 -0.001 0.000866 -6.53571e-05 -0.001 
0.000866 -0.000196071 -0.001 0.000866 -0.000326786 -0.001 0.000829194 0.00047875 -0.001 
0.000150004 0.000913393 -0.001 0.000263202 0.000848036 -0.001 0.000376401 0.000782678 -0.001 
0.000489599 0.000717321 -0.001 0.000602797 0.000651965 -0.001 0.000715996 0.000586607 -0.001 
5.29966e-05 6.64557e-05 -0.001 -1.89143e-05 8.28689e-05 -0.001 -7.65824e-05 3.68801e-05 -0.001 
-7.65824e-05 -3.68801e-05 -0.001 -1.89143e-05 -8.28689e-05 -0.001 5.29966e-05 -6.64557e-05 -0.001 
0.000131234 6.38474e-05 0 0.00012964 -6.2443e-05 0 3.13827e-05 0.0001394 0 
3.12554e-05 -0.000136939 0 -0.000140461 8.25467e-19 0 -8.90565e-05 -0.000102707 0 
-9.04142e-05 0.000102872 0 -0.000765769 -0.00025965 0 -0.000756873 0.000262774 0 
-0.00015609 0.000787505 0 -0.000155807 -0.00079355 0 0.000605069 0.000528035 0 
0.000608694 -0.00052497 0 0.000744069 0.000116929 0 -0.000494418 0.000596218 0 
-0.000483866 -0.000584648 0 0.000269496 0.000702219 0 0.000263201 -0.000717324 0 
0.000754429 -0.000127825 0 -0.000748858 5.84659e-07 0 -0.000747838 0.000373886 0 
-0.0006542 0.000324842 0 -0.000645137 0.000210123 0 -0.000550884 0.000274171 0 
-0.000538857 0.000163195 0 -0.00045062 0.000224461 0 -0.000438393 0.000123907 0 
-0.000354088 0.000181668 0 -0.000363908 0.000282171 0 -0.000270361 0.000239477 0 
-0.000279138 0.000337653 0 -0.000188888 0.000294791 0 -0.000196448 0.000393271 0 
-0.000104767 0.000348259 0 -0.000113332 0.000449012 0 -2.01066e-05 0.000403223 0 
-2.89189e-05 0.000507105 0 6.9524e-05 0.000461596 0 -0.000213644 0.000490203 0 
7.33757e-05 0.000357726 0 0.000163331 0.00041299 0 0.000163359 0.000313022 0 
0.000248077 0.000366368 0 0.000250914 0.000265758 0 0.000335709 0.000322266 0 
0.000340555 0.000218148 0 0.000427299 0.000276717 0 0.000431508 0.000173093 0 
0.000328731 0.000425633 0 0.00034586 0.000114823 0 0.000435362 7.05241e-05 0 
0.000350892 1.5455e-05 0 0.000441547 -3.11896e-05 0 0.000353547 -8.47783e-05 0 
0.000445767 -0.000132964 0 0.000356135 -0.000186358 0 0.000449094 -0.000234674 0 
0.000359978 -0.000287876 0 0.00026856 -0.000240545 0 0.000271895 -0.000341045 0 
0.000181792 -0.00029305 0 0.00018533 -0.000392851 0 9.75701e-05 -0.00034483 0 
9.98764e-05 -0.000444884 0 8.75116e-06 -0.000396343 0 1.20916e-05 -0.000500496 0 
-7.83929e-05 -0.000449843 0 -8.1471e-05 -0.000347249 0 -0.000171566 -0.000403733 0 
-0.000169889 -0.000298891 0 -0.000259867 -0.000354132 0 -0.000257696 -0.000249137 0 
-0.00034313 -0.000299896 0 -0.000344514 -0.000199127 0 -0.000434309 -0.000250039 0 
-0.000169832 -0.000505815 0 -0.000435227 -0.000146227 0 0.000280331 -0.000442424 0 
-0.000340889 8.76793e-05 0 -0.000515252 4.06198e-05 0 6.50491e-05 0.000568253 0 
0.00053278 1.74743e-05 0 0.000522071 0.000229831 0 -0.00037162 0.000391659 0 
-0.000255272 -0.000150439 0 -0.000442893 -0.000350705 0 0.000450067 -0.000332559 0 
0.000545175 -0.000276306 0 -0.000527797 -0.000197598 0 0.000105306 -0.000551033 0 
1.45836e-05 -0.000609147 0 0.00017145 0.000214453 0 0.000515525 0.000341711 0 
0.000636086 0.000290368 0 -0.000558657 0.000404468 0 -4.01232e-05 0.000616718 0 
6.60192e-05 0.000696422 0 -0.000101806 0.0002546 0 0.000271142 -3.88908e-05 0 
0.000179455 -0.00018534 0 -8.79553e-05 -0.000254307 0 -0.000749267 -0.000373451 0 
-0.000655941 -0.000323397 0 0.000709746 0.000466718 0 0.000698426 -0.000473086 0 
-5.25801e-05 -0.00084886 0 -4.93005e-05 0.000848038 0 0.000617396 -0.000413362 0 
0.000702056 -0.000369817 0 0.000131459 -0.000679171 0 2.48171e-05 -0.000715924 0 
-0.000664217 -0.00042729 0 -0.000528828 -8.80444e-05 0 -0.000611101 -0.000136672 0 
-0.000426972 -4.45841e-05 0 0.000800669 0.000378216 0 0.000821144 -0.000415062 0 
7.2799e-05 0.00088254 0 6.81831e-05 -0.00087503 0 0.000104963 -0.000788946 0 
-7.40696e-05 -0.000660054 0 0.000126061 0.000809943 0 0.000764361 0.000295682 0 
0.000166862 0.000630623 0 0.000516462 -0.00046707 0 -0.000563585 -0.000389606 0 
-0.000622598 -1.40238e-05 0 0.000629891 0.000171529 0 2.5614e-06 -0.000299794 0 
8.6901e-05 -0.00024329 0 0.000272045 -0.000136982 0 -0.00075148 0.000138321 0 
0.000209366 -0.000599589 0 0.000324913 -0.000630055 0 0.000614044 0.00041245 0 
0.00049651 -0.000573327 0 0.000394822 -0.000507321 0 -0.000173714 -0.000206698 0 
0.000264897 5.63722e-05 0 0.000247997 0.000152811 0 -4.63327e-05 -0.000920208 0 
9.18688e-05 0.000258626 0 -5.54111e-06 0.000290558 0 -0.000184219 0.000201484 0 
-0.000263559 0.000142267 0 -0.000256427 5.13624e-05 0 -0.000336894 -2.06179e-06 0 
-0.000228499 -4.2388e-05 0 -0.00017589 0.000106626 0 -0.000769947 -0.000133367 0 
0.000767591 -0.000500293 0 -5.05874e-05 0.000737978 0 0.000754456 -3.51771e-06 0 
0.00064691 -6.15298e-05 0 0.000630483 -0.00018134 0 0.000749187 -0.000265543 0 
-0.000760805 -0.000462521 0 0.000638155 6.09315e-05 0 -4.46661e-05 0.000922995 0 
-2.37945e-05 0.000207237 0 0.000776979 0.000500181 0 -0.000605691 0.000527596 0 
-0.000377914 -0.000653727 0 -0.000372325 -0.000526022 0 -0.000275829 -0.000589621 0 
-0.000254285 -0.000710579 0 -0.000379307 0.000656222 0 -0.000379818 0.00052718 0 
-0.000266817 0.000721555 0 -0.000150544 0.000668174 0 0.000381963 0.00065079 0 
0.000493113 0.000590432 0 0.000505439 0.000463708 0 -0.000269094 0.000596608 0 
0.000385815 0.000532045 0 0.000283599 0.0005899 0 -0.000176405 -0.000108505 0 
-0.000278769 -0.000475415 0 0.000185395 2.33014e-06 0 0.000186773 0.000517571 0 
0.000540032 -8.68444e-05 0 -0.000600694 -0.000514877 0 -0.00063703 8.98033e-05 0 
-0.000459677 0.000335729 0 -0.000338836 -0.000100751 0 -0.000457327 0.000432721 0 
-8.72007e-06 -0.000210238 0 0.000156073 0.000129496 0 -7.70692e-05 -0.000555049 0 
0.00036091 -0.000389728 0 0.000531628 0.000120564 0 -0.000285451 0.000435562 0 
0.000192719 -0.000494604 0 0.00041642 0.00039368 0 -0.000135943 0.000554637 0 
-0.000170665 -0.000610079 0 -0.000666304 0.000434981 0 -0.000758736 0.000479231 0 
-0.000470189 -0.000458901 0 0.000203433 -8.59809e-05 0 0.000101846 0.000170114 0 
-0.00035513 -0.00040726 0 0.000100184 -0.000165831 0 2.96286e-05 0.00081537 0 
0.000720946 0.000381836 0 -0.000539809 -0.000292001 0 0.00052211 -0.000182426 0 
-6.41339e-05 -0.000753908 0 0.000638039 -0.000299861 0 -0.000605136 -0.000230182 0 
-3.41638e-05 -0.000145561 0 -0.000104037 0.000172396 0 -0.000808575 -0.00042774 0 
-0.000807207 -0.000465052 0 -0.00080817 0.000429771 0 -0.000806589 0.000469738 0 
-9.50634e-05 -0.000178909 0 0.000247777 0.000445058 0 1.48293e-05 -0.000814201 0 
-4.11555e-05 0.000140955 0 0.000276104 -0.000536845 0 0.000765969 -0.000436638 0 
0.000780871 -0.000362769 0 0.000424176 -0.000642018 0 0.00053413 -0.000368009 0 
-0.000416333 4.17911e-05 0 -0.000133891 -6.23822e-05 0 4.2574e-05 0.000206312 0 
[...]
POINT_DATA 626
VECTORS displacement float
-1.74394e-06 3.09563e-05 1.80559e-05
1.73564e-06 3.09753e-05 1.8101e-05
-2.59879e-05 1.69938e-05 1.80879e-05
-2.58425e-05 1.60339e-05 1.80525e-05
-2.77223e-05 1.39737e-05 1.80699e-05
-2.77152e-05 -1.402e-05 1.80954e-05
-2.58137e-05 -1.60721e-05 1.81067e-05
-2.59841e-05 -1.70118e-05 1.81679e-05
-1.6774e-06 -3.096e-05 1.80523e-05
1.75544e-06 -3.09615e-05 1.81027e-05
2.59452e-05 -1.69816e-05 1.80444e-05
2.77186e-05 -1.39376e-05 1.80442e-05
2.76741e-05 1.39903e-05 1.80925e-05
2.59166e-05 1.69939e-05 1.80469e-05
0 0 0
-1.74394e-06 3.09563e-05 -1.80559e-05
1.73564e-06 3.09753e-05 -1.8101e-05
-2.59879e-05 1.69938e-05 -1.80879e-05
-2.58425e-05 1.60339e-05 -1.80525e-05
-2.77223e-05 1.39737e-05 -1.80699e-05
-2.77152e-05 -1.402e-05 -1.80954e-05
-2.58137e-05 -1.60721e-05 -1.81067e-05
-2.59841e-05 -1.70118e-05 -1.81679e-05
-1.6774e-06 -3.096e-05 -1.80523e-05
1.75544e-06 -3.09615e-05 -1.81027e-05
2.59452e-05 -1.69816e-05 -1.80444e-05
2.77186e-05 -1.39376e-05 -1.80442e-05
2.76741e-05 1.39903e-05 -1.80925e-05
2.59166e-05 1.69939e-05 -1.80469e-05
0 0 0
2.48864e-08 3.01562e-05 1.80351e-05
-2.11422e-05 1.87135e-05 1.75507e-05
-1.72339e-05 1.98351e-05 1.69219e-05
-1.4008e-05 2.10558e-05 1.6556e-05
-1.12077e-05 2.26666e-05 1.65499e-05
-8.52457e-06 2.48347e-05 1.69024e-05
-5.56798e-06 2.76236e-05 1.75384e-05
-2.64514e-05 1.468e-05 1.80343e-05
-2.67705e-05 -9.01232e-06 1.75783e-05
-2.58081e-05 -5.03598e-06 1.6927e-05
-2.52564e-05 -1.63638e-06 1.65725e-05
-2.52593e-05 1.60802e-06 1.65754e-05
-2.58003e-05 5.02337e-06 1.69252e-05
-2.67567e-05 8.9854e-06 1.75648e-05
-2.64383e-05 -1.47264e-05 1.80631e-05
-5.54124e-06 -2.76381e-05 1.75306e-05
-8.47709e-06 -2.48437e-05 1.69017e-05
-1.11709e-05 -2.2686e-05 1.65572e-05
-1.39717e-05 -2.10888e-05 1.65606e-05
-1.72163e-05 -1.98705e-05 1.69377e-05
-2.11357e-05 -1.87503e-05 1.75631e-05
8.98294e-08 -3.01409e-05 1.80302e-05
2.11255e-05 -1.86259e-05 1.75124e-05
1.7246e-05 -1.97635e-05 1.68739e-05
1.4035e-05 -2.10127e-05 1.65127e-05
1.12259e-05 -2.25947e-05 1.65472e-05
8.58172e-06 -2.47819e-05 1.68752e-05
5.65485e-06 -2.76283e-05 1.75359e-05
2.61261e-05 -1.50606e-05 1.80292e-05
2.67185e-05 8.9392e-06 1.75024e-05
2.57239e-05 5.0501e-06 1.69094e-05
2.52085e-05 1.6235e-06 1.65243e-05
2.52056e-05 -1.5996e-06 1.65226e-05
2.57525e-05 -4.99789e-06 1.68894e-05
2.67006e-05 -8.91795e-06 1.75106e-05
2.61092e-05 1.50617e-05 1.80262e-05
5.6333e-06 2.76197e-05 1.75105e-05
8.50909e-06 2.48086e-05 1.69122e-05
1.12179e-05 2.26428e-05 1.65304e-05
1.40056e-05 2.10237e-05 1.65258e-05
1.7223e-05 1.97948e-05 1.68861e-05
2.11165e-05 1.86355e-05 1.75263e-05
0 0 0
0 0 0
0 0 0
0 0 0
0 0 0
0 0 0
2.48864e-08 3.01562e-05 -1.80351e-05
-2.11422e-05 1.87135e-05 -1.75507e-05
-1.72339e-05 1.98351e-05 -1.69219e-05
-1.4008e-05 2.10558e-05 -1.6556e-05
-1.12077e-05 2.26666e-05 -1.65499e-05
-8.52457e-06 2.48347e-05 -1.69024e-05
-5.56798e-06 2.76236e-05 -1.75384e-05
-2.64514e-05 1.468e-05 -1.80343e-05
-2.67705e-05 -9.01232e-06 -1.75783e-05
-2.58081e-05 -5.03598e-06 -1.6927e-05
-2.52564e-05 -1.63638e-06 -1.65725e-05
-2.52593e-05 1.60802e-06 -1.65754e-05
-2.58003e-05 5.02337e-06 -1.69252e-05
-2.67567e-05 8.9854e-06 -1.75648e-05
-2.64383e-05 -1.47264e-05 -1.80631e-05
-5.54124e-06 -2.76381e-05 -1.75306e-05
-8.47709e-06 -2.48437e-05 -1.69017e-05
-1.11709e-05 -2.2686e-05 -1.65572e-05
-1.39717e-05 -2.10888e-05 -1.65606e-05
-1.72163e-05 -1.98705e-05 -1.69377e-05
-2.11357e-05 -1.87503e-05 -1.75631e-05
8.98294e-08 -3.01409e-05 -1.80302e-05
2.11255e-05 -1.86259e-05 -1.75124e-05
1.7246e-05 -1.97635e-05 -1.68739e-05
1.4035e-05 -2.10127e-05 -1.65127e-05
1.12259e-05 -2.25947e-05 -1.65472e-05
8.58172e-06 -2.47819e-05 -1.68752e-05
5.65485e-06 -2.76283e-05 -1.75359e-05
2.61261e-05 -1.50606e-05 -1.80292e-05
2.67185e-05 8.9392e-06 -1.75024e-05
2.57239e-05 5.0501e-06 -1.69094e-05
2.52085e-05 1.6235e-06 -1.65243e-05
2.52056e-05 -1.5996e-06 -1.65226e-05
2.57525e-05 -4.99789e-06 -1.68894e-05
2.67006e-05 -8.91795e-06 -1.75106e-05
2.61092e-05 1.50617e-05 -1.80262e-05
5.6333e-06 2.76197e-05 -1.75105e-05
8.50909e-06 2.48086e-05 -1.69122e-05
1.12179e-05 2.26428e-05 -1.65304e-05
1.40056e-05 2.10237e-05 -1.65258e-05
1.7223e-05 1.97948e-05 -1.68861e-05
2.11165e-05 1.86355e-05 -1.75263e-05
0 0 0
0 0 0
0 0 0
0 0 0
0 0 0
0 0 0
1.79378e-06 8.58793e-07 4.55258e-06
1.73791e-06 -8.25159e-07 4.46113e-06
4.31977e-07 1.84972e-06 4.49544e-06
4.36121e-07 -1.78073e-06 4.3564e-06
-1.84759e-06 2.09646e-08 4.42268e-06
-1.12315e-06 -1.30894e-06 4.1513e-06
-1.15927e-06 1.30687e-06 4.20008e-06
-2.25146e-05 -7.28825e-06 1.70009e-05
-2.21979e-05 7.37214e-06 1.69696e-05
-4.86072e-06 2.29001e-05 1.6938e-05
-4.85823e-06 -2.31333e-05 1.69649e-05
1.74225e-05 1.56365e-05 1.69308e-05
1.75701e-05 -1.55375e-05 1.69401e-05
2.10751e-05 3.16415e-06 1.63254e-05
-1.39542e-05 1.71525e-05 1.64794e-05
-1.35922e-05 -1.67425e-05 1.6411e-05
7.76839e-06 1.9821e-05 1.63322e-05
7.68539e-06 -2.03115e-05 1.64035e-05
2.14739e-05 -3.44402e-06 1.64012e-05
-2.11043e-05 6.58815e-09 1.62477e-05
-2.24218e-05 1.10005e-05 1.74545e-05
-1.87522e-05 9.25536e-06 1.6628e-05
-1.79841e-05 5.79588e-06 1.60373e-05
-1.4985e-05 7.44887e-06 1.54873e-05
-1.42255e-05 4.30804e-06 1.48306e-05
-1.15334e-05 5.7443e-06 1.40956e-05
-1.08588e-05 3.06895e-06 1.33744e-05
-8.40108e-06 4.30518e-06 1.24052e-05
-9.05946e-06 7.01391e-06 1.34572e-05
-6.20454e-06 5.48889e-06 1.16897e-05
-6.8288e-06 8.25004e-06 1.30808e-05
-4.2817e-06 6.67537e-06 1.14512e-05
-4.80036e-06 9.61062e-06 1.30948e-05
-2.40104e-06 7.99391e-06 1.17237e-05
-2.81306e-06 1.1168e-05 1.34758e-05
-4.75446e-07 9.59598e-06 1.25018e-05
-7.3841e-07 1.29979e-05 1.41426e-05
1.7312e-06 1.15186e-05 1.35358e-05
-5.5351e-06 1.27013e-05 1.44379e-05
1.6852e-06 8.22455e-06 1.17483e-05
4.00447e-06 1.01216e-05 1.31518e-05
3.70561e-06 7.09845e-06 1.1479e-05
6.06784e-06 8.96732e-06 1.31142e-05
5.76723e-06 6.10722e-06 1.17363e-05
8.35869e-06 8.02091e-06 1.34929e-05
8.10623e-06 5.19564e-06 1.25012e-05
1.09548e-05 7.09757e-06 1.41479e-05
1.07467e-05 4.32311e-06 1.34999e-05
8.53115e-06 1.10383e-05 1.44617e-05
7.93825e-06 2.64393e-06 1.17282e-05
1.06468e-05 1.73733e-06 1.31049e-05
7.94924e-06 3.58786e-07 1.14563e-05
1.08072e-05 -7.59168e-07 1.3125e-05
8.11222e-06 -1.93794e-06 1.17099e-05
1.10991e-05 -3.31309e-06 1.34848e-05
8.47034e-06 -4.4243e-06 1.24449e-05
1.15046e-05 -6.00332e-06 1.41103e-05
8.95622e-06 -7.13863e-06 1.34289e-05
6.14795e-06 -5.4948e-06 1.1642e-05
6.64498e-06 -8.30147e-06 1.30191e-05
4.10549e-06 -6.58897e-06 1.13117e-05
4.52368e-06 -9.55156e-06 1.29891e-05
2.24245e-06 -7.85884e-06 1.15981e-05
2.48501e-06 -1.10027e-05 1.33518e-05
2.25305e-07 -9.37436e-06 1.23544e-05
3.30035e-07 -1.27707e-05 1.40347e-05
-1.91558e-06 -1.11515e-05 1.33779e-05
-1.8412e-06 -7.92218e-06 1.15829e-05
-4.16821e-06 -9.87557e-06 1.30859e-05
-3.81421e-06 -6.73097e-06 1.13179e-05
-6.34609e-06 -8.66265e-06 1.31002e-05
-5.89172e-06 -5.69841e-06 1.16292e-05
-8.50035e-06 -7.43634e-06 1.33806e-05
-8.16813e-06 -4.7284e-06 1.24095e-05
-1.10965e-05 -6.40324e-06 1.40708e-05
-4.37198e-06 -1.31242e-05 1.44346e-05
-1.08096e-05 -3.65095e-06 1.34401e-05
7.22666e-06 -1.13736e-05 1.42739e-05
-7.74225e-06 1.98283e-06 1.14937e-05
-1.32171e-05 1.03513e-06 1.42119e-05
1.72925e-06 1.50839e-05 1.49532e-05
1.37691e-05 4.62273e-07 1.43888e-05
1.38442e-05 6.10056e-06 1.49327e-05
-9.69479e-06 1.0197e-05 1.45335e-05
-5.41639e-06 -3.19788e-06 1.01829e-05
-1.17145e-05 -9.29803e-06 1.48902e-05
1.18833e-05 -8.76087e-06 1.47881e-05
1.47829e-05 -7.47417e-06 1.54044e-05
-1.39608e-05 -5.24429e-06 1.48627e-05
2.79603e-06 -1.45172e-05 1.47972e-05
4.24589e-07 -1.65006e-05 1.53988e-05
3.51868e-06 4.39724e-06 9.58182e-06
1.40116e-05 9.29975e-06 1.54926e-05
1.79321e-05 8.14557e-06 1.63016e-05
-1.56766e-05 1.13962e-05 1.62345e-05
-1.09417e-06 1.67703e-05 1.54963e-05
1.90698e-06 1.96231e-05 1.6312e-05
-2.09202e-06 5.22044e-06 9.59832e-06
5.55433e-06 -7.84658e-07 9.59487e-06
3.5862e-06 -3.68381e-06 9.08266e-06
-1.77976e-06 -5.17893e-06 9.45032e-06
-2.24703e-05 -1.10116e-05 1.74753e-05
-1.87995e-05 -9.2421e-06 1.66521e-05
2.11493e-05 1.41657e-05 1.75065e-05
2.07552e-05 -1.43186e-05 1.74365e-05
-1.76468e-06 -2.54483e-05 1.75119e-05
-1.68221e-06 2.54123e-05 1.75165e-05
1.77143e-05 -1.19077e-05 1.66882e-05
2.06472e-05 -1.07519e-05 1.7117e-05
3.7759e-06 -1.89866e-05 1.61404e-05
7.68574e-07 -2.03473e-05 1.64839e-05
-1.94065e-05 -1.26514e-05 1.71441e-05
-1.37321e-05 -2.3071e-06 1.44729e-05
-1.6594e-05 -3.70172e-06 1.54786e-05
-1.03766e-05 -1.09647e-06 1.2953e-05
2.44537e-05 1.10736e-05 1.76525e-05
2.54992e-05 -1.24041e-05 1.7849e-05
2.64933e-06 2.67278e-05 1.76614e-05
2.52108e-06 -2.64154e-05 1.76303e-05
3.33965e-06 -2.30336e-05 1.70301e-05
-2.05404e-06 -1.83212e-05 1.59519e-05
4.05928e-06 2.3793e-05 1.71314e-05
2.26157e-05 8.37991e-06 1.71202e-05
4.61393e-06 1.73146e-05 1.57283e-05
1.44281e-05 -1.31204e-05 1.61384e-05
-1.57888e-05 -1.09855e-05 1.62156e-05
-1.6801e-05 -3.81458e-07 1.53784e-05
1.73072e-05 4.68784e-06 1.57267e-05
6.55253e-08 -6.38775e-06 1.02682e-05
1.74183e-06 -4.84878e-06 9.09317e-06
5.85086e-06 -2.93571e-06 1.03789e-05
-2.14457e-05 3.75082e-06 1.64599e-05
5.72978e-06 -1.62757e-05 1.55088e-05
9.08413e-06 -1.75003e-05 1.59986e-05
1.75734e-05 1.18825e-05 1.66733e-05
1.39953e-05 -1.63834e-05 1.64023e-05
1.07408e-05 -1.379e-05 1.55512e-05
-3.54821e-06 -4.22047e-06 9.50147e-06
5.39947e-06 1.13857e-06 9.49975e-06
5.2184e-06 3.22309e-06 1.0048e-05
-1.74983e-06 -2.83563e-05 1.78777e-05
1.89218e-06 5.29924e-06 9.58516e-06
-1.13832e-07 6.10541e-06 1.00395e-05
-3.78517e-06 4.12801e-06 9.57911e-06
-5.62306e-06 3.03439e-06 1.0286e-05
-5.16581e-06 1.04074e-06 9.21429e-06
-7.52776e-06 -6.17436e-08 1.11732e-05
-4.33465e-06 -8.10328e-07 8.38247e-06
-3.10878e-06 1.87245e-06 7.3746e-06
-2.20827e-05 -3.60806e-06 1.65168e-05
2.34077e-05 -1.56889e-05 1.7837e-05
-1.50729e-06 2.11694e-05 1.6683e-05
2.12632e-05 -8.45267e-08 1.62268e-05
1.76234e-05 -1.64693e-06 1.55825e-05
1.7349e-05 -4.94204e-06 1.57717e-05
2.1893e-05 -7.45168e-06 1.69146e-05
-2.31837e-05 -1.42554e-05 1.78336e-05
1.73259e-05 1.649e-06 1.55096e-05
-1.73404e-06 2.84748e-05 1.7895e-05
-4.22098e-07 3.68364e-06 7.49585e-06
2.37734e-05 1.57433e-05 1.78854e-05
-1.74986e-05 1.56433e-05 1.69759e-05
-1.0627e-05 -1.84675e-05 1.62561e-05
-1.01003e-05 -1.43434e-05 1.55727e-05
-7.50832e-06 -1.6096e-05 1.56231e-05
-7.32263e-06 -2.0122e-05 1.63963e-05
-1.07052e-05 1.85366e-05 1.62678e-05
-1.03481e-05 1.43851e-05 1.56204e-05
-7.77317e-06 2.04939e-05 1.64453e-05
-4.25328e-06 1.8611e-05 1.6054e-05
1.07605e-05 1.83468e-05 1.62272e-05
1.38927e-05 1.69361e-05 1.6432e-05
1.4043e-05 1.29738e-05 1.60523e-05
-7.36211e-06 1.62895e-05 1.56396e-05
1.05259e-05 1.45481e-05 1.56463e-05
7.74931e-06 1.60935e-05 1.5615e-05
-3.11666e-06 -1.89888e-06 7.39373e-06
-7.25818e-06 -1.24229e-05 1.46262e-05
3.00884e-06 4.03627e-08 6.60147e-06
4.87293e-06 1.35237e-05 1.46191e-05
1.40771e-05 -2.26056e-06 1.45715e-05
-1.7291e-05 -1.52177e-05 1.69465e-05
-1.73678e-05 2.42049e-06 1.55989e-05
-1.22056e-05 8.91258e-06 1.49445e-05
-7.70617e-06 -2.29268e-06 1.15555e-05
-1.24507e-05 1.18135e-05 1.5541e-05
-1.42745e-07 -3.75446e-06 7.55474e-06
2.7304e-06 2.27222e-06 7.25247e-06
-2.00401e-06 -1.46516e-05 1.48091e-05
9.36578e-06 -1.0069e-05 1.43904e-05
1.38618e-05 3.15805e-06 1.45671e-05
-7.34059e-06 1.12002e-05 1.42613e-05
4.99759e-06 -1.27757e-05 1.43703e-05
1.10327e-05 1.04313e-05 1.49207e-05
-3.59671e-06 1.46864e-05 1.49091e-05
-4.63581e-06 -1.66181e-05 1.55499e-05
-1.95085e-05 1.28933e-05 1.71623e-05
-2.31285e-05 1.48591e-05 1.78443e-05
-1.29059e-05 -1.2687e-05 1.58136e-05
3.76104e-06 -1.58623e-06 7.90755e-06
1.7645e-06 2.92247e-06 7.08497e-06
-9.23118e-06 -1.06103e-05 1.45328e-05
1.72785e-06 -2.82333e-06 6.93159e-06
9.94774e-07 2.41186e-05 1.73095e-05
2.13694e-05 1.11947e-05 1.72996e-05
-1.46657e-05 -7.95398e-06 1.54864e-05
1.37091e-05 -4.78668e-06 1.46917e-05
-1.91001e-06 -2.17645e-05 1.68038e-05
1.80617e-05 -8.4197e-06 1.63418e-05
-1.66802e-05 -6.32905e-06 1.57835e-05
-4.32926e-07 -1.92243e-06 4.79883e-06
-1.80548e-06 2.99563e-06 7.17772e-06
-2.50536e-05 -1.29827e-05 1.79232e-05
-2.51288e-05 -1.45082e-05 1.8003e-05
-2.50468e-05 1.30346e-05 1.79069e-05
-2.51196e-05 1.46509e-05 1.7983e-05
-1.64856e-06 -3.12505e-06 7.21046e-06
6.32843e-06 1.13693e-05 1.40776e-05
5.3373e-07 -2.40878e-05 1.73032e-05
-5.22809e-07 1.80965e-06 4.64536e-06
7.40803e-06 -1.43448e-05 1.51535e-05
2.33044e-05 -1.32102e-05 1.77297e-05
2.36343e-05 -1.05384e-05 1.74918e-05
1.19893e-05 -1.82123e-05 1.62944e-05
1.47312e-05 -1.01474e-05 1.57967e-05
-1.00278e-05 1.00132e-06 1.27556e-05
-1.74012e-06 -8.1595e-07 4.72381e-06
7.69114e-07 3.70859e-06 7.57373e-06
2.34322e-06 -1.99729e-06 6.55579e-06
2.0158e-05 5.8983e-06 1.64547e-05
5.07043e-06 2.05975e-05 1.64971e-05
3.42121e-07 -2.76819e-05 1.78549e-05
-1.73133e-06 7.09153e-07 4.60667e-06
-3.21171e-06 6.23087e-07 6.82466e-06
3.57745e-06 1.47551e-06 7.63721e-06
4.99232e-07 2.83257e-05 1.79282e-05
2.4762e-05 1.3735e-05 1.79193e-05
-2.03298e-05 1.55368e-05 1.743e-05
1.17878e-06 1.36455e-06 4.46019e-06
-2.06411e-05 -1.57294e-05 1.75286e-05
-1.90004e-05 -2.32238e-06 1.59473e-05
-1.95606e-05 -5.58544e-06 1.63334e-05
9.0574e-07 -3.24796e-06 7.00664e-06
-4.36633e-06 -1.97908e-05 1.63229e-05
-7.9379e-06 1.38355e-05 1.51022e-05
1.16582e-06 -1.30426e-06 4.33962e-06
1.19354e-05 -1.12292e-05 1.52933e-05
6.13344e-06 -2.26978e-05 1.68216e-05
-1.45233e-05 1.43564e-05 1.63247e-05
7.92969e-06 1.33223e-05 1.49491e-05
1.79378e-06 8.58793e-07 -4.55258e-06
1.73791e-06 -8.25159e-07 -4.46113e-06
4.31977e-07 1.84972e-06 -4.49544e-06
4.36121e-07 -1.78073e-06 -4.3564e-06
-1.84759e-06 2.09646e-08 -4.42268e-06
-1.12315e-06 -1.30894e-06 -4.1513e-06
-1.15927e-06 1.30687e-06 -4.20008e-06
-2.25146e-05 -7.28825e-06 -1.70009e-05
-2.21979e-05 7.37214e-06 -1.69696e-05
-4.86072e-06 2.29001e-05 -1.6938e-05
-4.85823e-06 -2.31333e-05 -1.69649e-05
1.74225e-05 1.56365e-05 -1.69308e-05
1.75701e-05 -1.55375e-05 -1.69401e-05
2.10751e-05 3.16415e-06 -1.63254e-05
-1.39542e-05 1.71525e-05 -1.64794e-05
-1.35922e-05 -1.67425e-05 -1.6411e-05
7.76839e-06 1.9821e-05 -1.63322e-05
7.68539e-06 -2.03115e-05 -1.64035e-05
2.14739e-05 -3.44402e-06 -1.64012e-05
-2.11043e-05 6.58815e-09 -1.62477e-05
-2.24218e-05 1.10005e-05 -1.74545e-05
-1.87522e-05 9.25536e-06 -1.6628e-05
-1.79841e-05 5.79588e-06 -1.60373e-05
-1.4985e-05 7.44887e-06 -1.54873e-05
-1.42255e-05 4.30804e-06 -1.48306e-05
-1.15334e-05 5.7443e-06 -1.40956e-05
-1.08588e-05 3.06895e-06 -1.33744e-05
-8.40108e-06 4.30518e-06 -1.24052e-05
-9.05946e-06 7.01391e-06 -1.34572e-05
-6.20454e-06 5.48889e-06 -1.16897e-05
-6.8288e-06 8.25004e-06 -1.30808e-05
-4.2817e-06 6.67537e-06 -1.14512e-05
-4.80036e-06 9.61062e-06 -1.30948e-05
-2.40104e-06 7.99391e-06 -1.17237e-05
-2.81306e-06 1.1168e-05 -1.34758e-05
-4.75446e-07 9.59598e-06 -1.25018e-05
-7.3841e-07 1.29979e-05 -1.41426e-05
1.7312e-06 1.15186e-05 -1.35358e-05
-5.5351e-06 1.27013e-05 -1.44379e-05
1.6852e-06 8.22455e-06 -1.17483e-05
4.00447e-06 1.01216e-05 -1.31518e-05
3.70561e-06 7.09845e-06 -1.1479e-05
6.06784e-06 8.96732e-06 -1.31142e-05
5.76723e-06 6.10722e-06 -1.17363e-05
8.35869e-06 8.02091e-06 -1.34929e-05
8.10623e-06 5.19564e-06 -1.25012e-05
1.09548e-05 7.09757e-06 -1.41479e-05
1.07467e-05 4.32311e-06 -1.34999e-05
8.53115e-06 1.10383e-05 -1.44617e-05
7.93825e-06 2.64393e-06 -1.17282e-05
1.06468e-05 1.73733e-06 -1.31049e-05
7.94924e-06 3.58786e-07 -1.14563e-05
1.08072e-05 -7.59168e-07 -1.3125e-05
8.11222e-06 -1.93794e-06 -1.17099e-05
1.10991e-05 -3.31309e-06 -1.34848e-05
8.47034e-06 -4.4243e-06 -1.24449e-05
1.15046e-05 -6.00332e-06 -1.41103e-05
8.95622e-06 -7.13863e-06 -1.34289e-05
6.14795e-06 -5.4948e-06 -1.1642e-05
6.64498e-06 -8.30147e-06 -1.30191e-05
4.10549e-06 -6.58897e-06 -1.13117e-05
4.52368e-06 -9.55156e-06 -1.29891e-05
2.24245e-06 -7.85884e-06 -1.15981e-05
2.48501e-06 -1.10027e-05 -1.33518e-05
2.25305e-07 -9.37436e-06 -1.23544e-05
3.30035e-07 -1.27707e-05 -1.40347e-05
-1.91558e-06 -1.11515e-05 -1.33779e-05
-1.8412e-06 -7.92218e-06 -1.15829e-05
-4.16821e-06 -9.87557e-06 -1.30859e-05
-3.81421e-06 -6.73097e-06 -1.13179e-05
-6.34609e-06 -8.66265e-06 -1.31002e-05
-5.89172e-06 -5.69841e-06 -1.16292e-05
-8.50035e-06 -7.43634e-06 -1.33806e-05
-8.16813e-06 -4.7284e-06 -1.24095e-05
-1.10965e-05 -6.40324e-06 -1.40708e-05
-4.37198e-06 -1.31242e-05 -1.44346e-05
-1.08096e-05 -3.65095e-06 -1.34401e-05
7.22666e-06 -1.13736e-05 -1.42739e-05
-7.74225e-06 1.98283e-06 -1.14937e-05
-1.32171e-05 1.03513e-06 -1.42119e-05
1.72925e-06 1.50839e-05 -1.49532e-05
1.37691e-05 4.62273e-07 -1.43888e-05
1.38442e-05 6.10056e-06 -1.49327e-05
-9.69479e-06 1.0197e-05 -1.45335e-05
-5.41639e-06 -3.19788e-06 -1.01829e-05
-1.17145e-05 -9.29803e-06 -1.48902e-05
1.18833e-05 -8.76087e-06 -1.47881e-05
1.47829e-05 -7.47417e-06 -1.54044e-05
-1.39608e-05 -5.24429e-06 -1.48627e-05
2.79603e-06 -1.45172e-05 -1.47972e-05
4.24589e-07 -1.65006e-05 -1.53988e-05
3.51868e-06 4.39724e-06 -9.58182e-06
1.40116e-05 9.29975e-06 -1.54926e-05
1.79321e-05 8.14557e-06 -1.63016e-05
-1.56766e-05 1.13962e-05 -1.62345e-05
-1.09417e-06 1.67703e-05 -1.54963e-05
1.90698e-06 1.96231e-05 -1.6312e-05
-2.09202e-06 5.22044e-06 -9.59832e-06
5.55433e-06 -7.84658e-07 -9.59487e-06
3.5862e-06 -3.68381e-06 -9.08266e-06
-1.77976e-06 -5.17893e-06 -9.45032e-06
-2.24703e-05 -1.10116e-05 -1.74753e-05
-1.87995e-05 -9.2421e-06 -1.66521e-05
2.11493e-05 1.41657e-05 -1.75065e-05
2.07552e-05 -1.43186e-05 -1.74365e-05
-1.76468e-06 -2.54483e-05 -1.75119e-05
-1.68221e-06 2.54123e-05 -1.75165e-05
1.77143e-05 -1.19077e-05 -1.66882e-05
2.06472e-05 -1.07519e-05 -1.7117e-05
3.7759e-06 -1.89866e-05 -1.61404e-05
7.68574e-07 -2.03473e-05 -1.64839e-05
-1.94065e-05 -1.26514e-05 -1.71441e-05
-1.37321e-05 -2.3071e-06 -1.44729e-05
-1.6594e-05 -3.70172e-06 -1.54786e-05
-1.03766e-05 -1.09647e-06 -1.2953e-05
2.44537e-05 1.10736e-05 -1.76525e-05
2.54992e-05 -1.24041e-05 -1.7849e-05
2.64933e-06 2.67278e-05 -1.76614e-05
2.52108e-06 -2.64154e-05 -1.76303e-05
3.33965e-06 -2.30336e-05 -1.70301e-05
-2.05404e-06 -1.83212e-05 -1.59519e-05
4.05928e-06 2.3793e-05 -1.71314e-05
2.26157e-05 8.37991e-06 -1.71202e-05
4.61393e-06 1.73146e-05 -1.57283e-05
1.44281e-05 -1.31204e-05 -1.61384e-05
-1.57888e-05 -1.09855e-05 -1.62156e-05
-1.6801e-05 -3.81458e-07 -1.53784e-05
1.73072e-05 4.68784e-06 -1.57267e-05
6.55253e-08 -6.38775e-06 -1.02682e-05
1.74183e-06 -4.84878e-06 -9.09317e-06
5.85086e-06 -2.93571e-06 -1.03789e-05
-2.14457e-05 3.75082e-06 -1.64599e-05
5.72978e-06 -1.62757e-05 -1.55088e-05
9.08413e-06 -1.75003e-05 -1.59986e-05
1.75734e-05 1.18825e-05 -1.66733e-05
1.39953e-05 -1.63834e-05 -1.64023e-05
1.07408e-05 -1.379e-05 -1.55512e-05
-3.54821e-06 -4.22047e-06 -9.50147e-06
5.39947e-06 1.13857e-06 -9.49975e-06
5.2184e-06 3.22309e-06 -1.0048e-05
-1.74983e-06 -2.83563e-05 -1.78777e-05
1.89218e-06 5.29924e-06 -9.58516e-06
-1.13832e-07 6.10541e-06 -1.00395e-05
-3.78517e-06 4.12801e-06 -9.57911e-06
-5.62306e-06 3.03439e-06 -1.0286e-05
-5.16581e-06 1.04074e-06 -9.21429e-06
-7.52776e-06 -6.17436e-08 -1.11732e-05
-4.33465e-06 -8.10328e-07 -8.38247e-06
-3.10878e-06 1.87245e-06 -7.3746e-06
-2.20827e-05 -3.60806e-06 -1.65168e-05
2.34077e-05 -1.56889e-05 -1.7837e-05
-1.50729e-06 2.11694e-05 -1.6683e-05
2.12632e-05 -8.45267e-08 -1.62268e-05
1.76234e-05 -1.64693e-06 -1.55825e-05
1.7349e-05 -4.94204e-06 -1.57717e-05
2.1893e-05 -7.45168e-06 -1.69146e-05
-2.31837e-05 -1.42554e-05 -1.78336e-05
1.73259e-05 1.649e-06 -1.55096e-05
-1.73404e-06 2.84748e-05 -1.7895e-05