# vtk DataFile Version 3.0
vtk output at time 40
ASCII
DATASET UNSTRUCTURED_GRID
POINTS 626 float
-3.68058e-05 0.000978749 0 3.68058e-05 0.000978749 0 -0.000829194 0.00052125 0 
-0.0008235 0.0005 0 -0.000866 0.0004575 0 -0.000866 -0.0004575 0 
-0.0008235 -0.0005 0 -0.000829194 -0.00052125 0 -3.68058e-05 -0.000978749 0 
3.68058e-05 -0.000978749 0 0.000829194 -0.00052125 0 0.000866 -0.0004575 0 
0.000866 0.0004575 0 0.000829194 0.00052125 0 8.5e-05 0 0 
-3.68058e-05 0.000978749 -0.001 3.68058e-05 0.000978749 -0.001 -0.000829194 0.00052125 -0.001 
-0.0008235 0.0005 -0.001 -0.000866 0.0004575 -0.001 -0.000866 -0.0004575 -0.001 
-0.0008235 -0.0005 -0.001 -0.000829194 -0.00052125 -0.001 -3.68058e-05 -0.000978749 -0.001 
3.68058e-05 -0.000978749 -0.001 0.000829194 -0.00052125 -0.001 0.000866 -0.0004575 -0.001 
0.000866 0.0004575 -0.001 0.000829194 0.00052125 -0.001 8.5e-05 0 -0.001 
8.46223e-17 0.0009575 0 -0.000715996 0.000586607 0 -0.000602797 0.000651965 0 
-0.000489599 0.000717321 0 -0.000376401 0.000782678 0 -0.000263202 0.000848036 0 
-0.000150004 0.000913393 0 -0.000835948 0.000469948 0 -0.000866 -0.000326786 0 
-0.000866 -0.000196071 0 -0.000866 -6.53571e-05 0 -0.000866 6.53571e-05 0 
-0.000866 0.000196071 0 -0.000866 0.000326786 0 -0.000835948 -0.000469948 0 
-0.000150004 -0.000913393 0 -0.000263202 -0.000848036 0 -0.000376401 -0.000782678 0 
-0.000489599 -0.000717321 0 -0.000602797 -0.000651965 0 -0.000715996 -0.000586607 0 
8.47648e-17 -0.0009575 0 0.000715996 -0.000586607 0 0.000602797 -0.000651965 0 
0.000489599 -0.000717321 0 0.000376401 -0.000782678 0 0.000263202 -0.000848036 0 
0.000150004 -0.000913393 0 0.000829194 -0.00047875 0 0.000866 0.000326786 0 
0.000866 0.000196071 0 0.000866 6.53571e-05 0 0.000866 -6.53571e-05 0 
0.000866 -0.000196071 0 0.000866 -0.000326786 0 0.000829194 0.00047875 0 
0.000150004 0.000913393 0 0.000263202 0.000848036 0 0.000376401 0.000782678 0 
0.000489599 0.000717321 0 0.000602797 0.000651965 0 0.000715996 0.000586607 0 
5.29966e-05 6.64557e-05 0 -1.89143e-05 8.28689e-05 0 -7.65824e-05 3.68801e-05 0 
-7.65824e-05 -3.68801e-05 0 -1.89143e-05 -8.28689e-05 0 5.29966e-05 -6.64557e-05 0 
8.46223e-17 0.0009575 -0.001 -0.000715996 0.000586607 -0.001 -0.000602797 0.000651965 -0.001 
-0.000489599 0.000717321 -0.001 -0.000376401 0.000782678 -0.001 -0.000263202 0.000848036 -0.001 
-0.000150004 0.000913393 -0.001 -0.000835948 0.000469948 -0.001 -0.000866 -0.000326786 -0.001 
-0.000866 -0.000196071 -0.001 -0.000866 -6.53571e-05 -0.001 -0.000866 6.53571e-05 -0.001 
-0.000866 0.000196071 -0.001 -0.000866 0.000326786 -0.001 -0.000835948 -0.000469948 -0.001 
-0.000150004 -0.000913393 -0.001 -0.000263202 -0.000848036 -0.001 -0.000376401 -0.000782678 -0.001 
-0.000489599 -0.000717321 -0.001 -0.000602797 -0.000651965 -0.001 -0.000715996 -0.000586607 -0.001 
8.47648e-17 -0.0009575 -0.001 0.000715996 -0.000586607 -0.001 0.000602797 -0.000651965 -0.001 
0.000489599 -0.000717321 -0.001 0.000376401 -0.000782678 -0.001 0.000263202 -0.000848036 -0.001 
0.000150004 -0.000913393 -0.001 0.000829194 -0.00047875 -0.001 0.000866 0.000326786 -0.001 
0.000866 0.000196071 -0.001 0.000866 6.53571e-05 -0.001 0.000866 -6.53571e-05 -0.001 
0.000866 -0.000196071 -0.001 0.000866 -0.000326786 -0.001 0.000829194 0.00047875 -0.001 
0.000150004 0.000913393 -0.001 0.000263202 0.000848036 -0.001 0.000376401 0.000782678 -0.001 
0.000489599 0.000717321 -0.001 0.000602797 0.000651965 -0.001 0.000715996 0.000586607 -0.001 
5.29966e-05 6.64557e-05 -0.001 -1.89143e-05 8.28689e-05 -0.001 -7.65824e-05 3.68801e-05 -0.001 
-7.65824e-05 -3.68801e-05 -0.001 -1.89143e-05 -8.28689e-05 -0.001 5.29966e-05 -6.64557e-05 -0.001 
0.000131234 6.38474e-05 0 0.00012964 -6.2443e-05 0 3.13827e-05 0.0001394 0 
3.12554e-05 -0.000136939 0 -0.000140461 8.25467e-19 0 -8.90565e-05 -0.000102707 0 
-9.04142e-05 0.000102872 0 -0.000765769 -0.00025965 0 -0.000756873 0.000262774 0 
-0.00015609 0.000787505 0 -0.000155807 -0.00079355 0 0.000605069 0.000528035 0 
0.000608694 -0.00052497 0 0.000744069 0.000116929 0 -0.000494418 0.000596218 0 
-0.000483866 -0.000584648 0 0.000269496 0.000702219 0 0.000263201 -0.000717324 0 
0.000754429 -0.000127825 0 -0.000748858 5.84659e-07 0 -0.000747838 0.000373886 0 
-0.0006542 0.000324842 0 -0.000645137 0.000210123 0 -0.000550884 0.000274171 0 
-0.000538857 0.000163195 0 -0.00045062 0.000224461 0 -0.000438393 0.000123907 0 
-0.000354088 0.000181668 0 -0.000363908 0.000282171 0 -0.000270361 0.000239477 0 
-0.000279138 0.000337653 0 -0.000188888 0.000294791 0 -0.000196448 0.000393271 0 
-0.000104767 0.000348259 0 -0.000113332 0.000449012 0 -2.01066e-05 0.000403223 0 
-2.89189e-05 0.000507105 0 6.9524e-05 0.000461596 0 -0.000213644 0.000490203 0 
7.33757e-05 0.000357726 0 0.000163331 0.00041299 0 0.000163359 0.000313022 0 
0.000248077 0.000366368 0 0.000250914 0.000265758 0 0.000335709 0.000322266 0 
0.000340555 0.000218148 0 0.000427299 0.000276717 0 0.000431508 0.000173093 0 
0.000328731 0.000425633 0 0.00034586 0.000114823 0 0.000435362 7.05241e-05 0 
0.000350892 1.5455e-05 0 0.000441547 -3.11896e-05 0 0.000353547 -8.47783e-05 0 
0.000445767 -0.000132964 0 0.000356135 -0.000186358 0 0.000449094 -0.000234674 0 
0.000359978 -0.000287876 0 0.00026856 -0.000240545 0 0.000271895 -0.000341045 0 
0.000181792 -0.00029305 0 0.00018533 -0.000392851 0 9.75701e-05 -0.00034483 0 
9.98764e-05 -0.000444884 0 8.75116e-06 -0.000396343 0 1.20916e-05 -0.000500496 0 
-7.83929e-05 -0.000449843 0 -8.1471e-05 -0.000347249 0 -0.000171566 -0.000403733 0 
-0.000169889 -0.000298891 0 -0.000259867 -0.000354132 0 -0.000257696 -0.000249137 0 
-0.00034313 -0.000299896 0 -0.000344514 -0.000199127 0 -0.000434309 -0.000250039 0 
-0.000169832 -0.000505815 0 -0.000435227 -0.000146227 0 0.000280331 -0.000442424 0 
-0.000340889 8.76793e-05 0 -0.000515252 4.06198e-05 0 6.50491e-05 0.000568253 0 
0.00053278 1.74743e-05 0 0.000522071 0.000229831 0 -0.00037162 0.000391659 0 
-0.000255272 -0.000150439 0 -0.000442893 -0.000350705 0 0.000450067 -0.000332559 0 
0.000545175 -0.000276306 0 -0.000527797 -0.000197598 0 0.000105306 -0.000551033 0 
1.45836e-05 -0.000609147 0 0.00017145 0.000214453 0 0.000515525 0.000341711 0 
0.000636086 0.000290368 0 -0.000558657 0.000404468 0 -4.01232e-05 0.000616718 0 
6.60192e-05 0.000696422 0 -0.000101806 0.0002546 0 0.000271142 -3.88908e-05 0 
0.000179455 -0.00018534 0 -8.79553e-05 -0.000254307 0 -0.000749267 -0.000373451 0 
-0.000655941 -0.000323397 0 0.000709746 0.000466718 0 0.000698426 -0.000473086 0 
-5.25801e-05 -0.00084886 0 -4.93005e-05 0.000848038 0 0.000617396 -0.000413362 0 
0.000702056 -0.000369817 0 0.000131459 -0.000679171 0 2.48171e-05 -0.000715924 0 
-0.000664217 -0.00042729 0 -0.000528828 -8.80444e-05 0 -0.000611101 -0.000136672 0 
-0.000426972 -4.45841e-05 0 0.000800669 0.000378216 0 0.000821144 -0.000415062 0 
7.2799e-05 0.00088254 0 6.81831e-05 -0.00087503 0 0.000104963 -0.000788946 0 
-7.40696e-05 -0.000660054 0 0.000126061 0.000809943 0 0.000764361 0.000295682 0 
0.000166862 0.000630623 0 0.000516462 -0.00046707 0 -0.000563585 -0.000389606 0 
-0.000622598 -1.40238e-05 0 0.000629891 0.000171529 0 2.5614e-06 -0.000299794 0 
8.6901e-05 -0.00024329 0 0.000272045 -0.000136982 0 -0.00075148 0.000138321 0 
0.000209366 -0.000599589 0 0.000324913 -0.000630055 0 0.000614044 0.00041245 0 
0.00049651 -0.000573327 0 0.000394822 -0.000507321 0 -0.000173714 -0.000206698 0 
0.000264897 5.63722e-05 0 0.000247997 0.000152811 0 -4.63327e-05 -0.000920208 0 
9.18688e-05 0.000258626 0 -5.54111e-06 0.000290558 0 -0.000184219 0.000201484 0 
-0.000263559 0.000142267 0 -0.000256427 5.13624e-05 0 -0.000336894 -2.06179e-06 0 
-0.000228499 -4.2388e-05 0 -0.00017589 0.000106626 0 -0.000769947 -0.000133367 0 
0.000767591 -0.000500293 0 -5.05874e-05 0.000737978 0 0.000754456 -3.51771e-06 0 
0.00064691 -6.15298e-05 0 0.000630483 -0.00018134 0 0.000749187 -0.000265543 0 
-0.000760805 -0.000462521 0 0.000638155 6.09315e-05 0 -4.46661e-05 0.000922995 0 
-2.37945e-05 0.000207237 0 0.000776979 0.000500181 0 -0.000605691 0.000527596 0 
-0.000377914 -0.000653727 0 -0.000372325 -0.000526022 0 -0.000275829 -0.000589621 0 
-0.000254285 -0.000710579 0 -0.000379307 0.000656222 0 -0.000379818 0.00052718 0 
-0.000266817 0.000721555 0 -0.000150544 0.000668174 0 0.000381963 0.00065079 0 
0.000493113 0.000590432 0 0.000505439 0.000463708 0 -0.000269094 0.000596608 0 
0.000385815 0.000532045 0 0.000283599 0.0005899 0 -0.000176405 -0.000108505 0 
-0.000278769 -0.000475415 0 0.000185395 2.33014e-06 0 0.000186773 0.000517571 0 
0.000540032 -8.68444e-05 0 -0.000600694 -0.000514877 0 -0.00063703 8.98033e-05 0 
-0.000459677 0.000335729 0 -0.000338836 -0.000100751 0 -0.000457327 0.000432721 0 
-8.72007e-06 -0.000210238 0 0.000156073 0.000129496 0 -7.70692e-05 -0.000555049 0 
0.00036091 -0.000389728 0 0.000531628 0.000120564 0 -0.000285451 0.000435562 0 
0.000192719 -0.000494604 0 0.00041642 0.00039368 0 -0.000135943 0.000554637 0 
-0.000170665 -0.000610079 0 -0.000666304 0.000434981 0 -0.000758736 0.000479231 0 
-0.000470189 -0.000458901 0 0.000203433 -8.59809e-05 0 0.000101846 0.000170114 0 
-0.00035513 -0.00040726 0 0.000100184 -0.000165831 0 2.96286e-05 0.00081537 0 
0.000720946 0.000381836 0 -0.000539809 -0.000292001 0 0.00052211 -0.000182426 0 
-6.41339e-05 -0.000753908 0 0.000638039 -0.000299861 0 -0.000605136 -0.000230182 0 
-3.41638e-05 -0.000145561 0 -0.000104037 0.000172396 0 -0.000808575 -0.00042774 0 
-0.000807207 -0.000465052 0 -0.00080817 0.000429771 0 -0.000806589 0.000469738 0 
-9.50634e-05 -0.000178909 0 0.000247777 0.000445058 0 1.48293e-05 -0.000814201 0 
-4.11555e-05 0.000140955 0 0.000276104 -0.000536845 0 0.000765969 -0.000436638 0 
0.000780871 -0.000362769 0 0.000424176 -0.000642018 0 0.00053413 -0.000368009 0 
-0.000416333 4.17911e-05 0 -0.000133891 -6.23822e-05 0 4.2574e-05 0.000206312 0 
[...]
POINT_DATA 626
VECTORS displacement float
-1.74391e-06 3.09611e-05 1.80581e-05
1.7356e-06 3.09802e-05 1.81032e-05
-2.59921e-05 1.69961e-05 1.80901e-05
-2.58467e-05 1.60363e-05 1.80547e-05
-2.77264e-05 1.39762e-05 1.80722e-05
-2.77194e-05 -1.40225e-05 1.80976e-05
-2.58178e-05 -1.60745e-05 1.81089e-05
-2.59883e-05 -1.70142e-05 1.81701e-05
-1.67738e-06 -3.09649e-05 1.80545e-05
1.7554e-06 -3.09664e-05 1.8105e-05
2.59495e-05 -1.6984e-05 1.80466e-05
2.77228e-05 -1.39401e-05 1.80465e-05
2.76782e-05 1.39928e-05 1.80947e-05
2.59208e-05 1.69963e-05 1.80491e-05
0 0 0
-1.74391e-06 3.09611e-05 -1.80581e-05
1.7356e-06 3.09802e-05 -1.81032e-05
-2.59921e-05 1.69961e-05 -1.80901e-05
-2.58467e-05 1.60363e-05 -1.80547e-05
-2.77264e-05 1.39762e-05 -1.80722e-05
-2.77194e-05 -1.40225e-05 -1.80976e-05
-2.58178e-05 -1.60745e-05 -1.81089e-05
-2.59883e-05 -1.70142e-05 -1.81701e-05
-1.67738e-06 -3.09649e-05 -1.80545e-05
1.7554e-06 -3.09664e-05 -1.8105e-05
2.59495e-05 -1.6984e-05 -1.80466e-05
2.77228e-05 -1.39401e-05 -1.80465e-05
2.76782e-05 1.39928e-05 -1.80947e-05
2.59208e-05 1.69963e-05 -1.80491e-05
0 0 0
2.48659e-08 3.01609e-05 1.80373e-05
-2.11462e-05 1.87164e-05 1.75532e-05
-1.72374e-05 1.98386e-05 1.69246e-05
-1.40109e-05 2.10599e-05 1.65589e-05
-1.12098e-05 2.26711e-05 1.65528e-05
-8.52584e-06 2.48396e-05 1.69052e-05
-5.56847e-06 2.76286e-05 1.75409e-05
-2.64555e-05 1.46824e-05 1.80366e-05
-2.6775e-05 -9.0144e-06 1.75808e-05
-2.58129e-05 -5.03732e-06 1.69297e-05
-2.52613e-05 -1.63684e-06 1.65754e-05
-2.52643e-05 1.60847e-06 1.65783e-05
-2.58051e-05 5.0247e-06 1.6928e-05
-2.67612e-05 8.98746e-06 1.75673e-05
-2.64424e-05 -1.47288e-05 1.80653e-05
-5.54172e-06 -2.7643e-05 1.75331e-05
-8.47836e-06 -2.48486e-05 1.69045e-05
-1.1173e-05 -2.26905e-05 1.65602e-05
-1.39746e-05 -2.10929e-05 1.65635e-05
-1.72199e-05 -1.9874e-05 1.69404e-05
-2.11398e-05 -1.87531e-05 1.75656e-05
8.98022e-08 -3.01457e-05 1.80325e-05
2.11296e-05 -1.86288e-05 1.75149e-05
1.72496e-05 -1.97671e-05 1.68767e-05
1.40379e-05 -2.10168e-05 1.65156e-05
1.1228e-05 -2.25993e-05 1.65502e-05
8.58296e-06 -2.47868e-05 1.6878e-05
5.65529e-06 -2.76333e-05 1.75384e-05
2.61303e-05 -1.5063e-05 1.80315e-05
2.67231e-05 8.9413e-06 1.75049e-05
2.57287e-05 5.05144e-06 1.69122e-05
2.52135e-05 1.62396e-06 1.65272e-05
2.52106e-05 -1.60006e-06 1.65255e-05
2.57574e-05 -4.99922e-06 1.68921e-05
2.67052e-05 -8.92004e-06 1.75131e-05
2.61133e-05 1.50641e-05 1.80285e-05
5.63374e-06 2.76247e-05 1.7513e-05
8.51035e-06 2.48135e-05 1.6915e-05
1.12199e-05 2.26473e-05 1.65334e-05
1.40085e-05 2.10278e-05 1.65287e-05
1.72266e-05 1.97983e-05 1.68889e-05
2.11206e-05 1.86384e-05 1.75288e-05
0 0 0
0 0 0
0 0 0
0 0 0
0 0 0
0 0 0
2.48659e-08 3.01609e-05 -1.80373e-05
-2.11462e-05 1.87164e-05 -1.75532e-05
-1.72374e-05 1.98386e-05 -1.69246e-05
-1.40109e-05 2.10599e-05 -1.65589e-05
-1.12098e-05 2.26711e-05 -1.65528e-05
-8.52584e-06 2.48396e-05 -1.69052e-05
-5.56847e-06 2.76286e-05 -1.75409e-05
-2.64555e-05 1.46824e-05 -1.80366e-05
-2.6775e-05 -9.0144e-06 -1.75808e-05
-2.58129e-05 -5.03732e-06 -1.69297e-05
-2.52613e-05 -1.63684e-06 -1.65754e-05
-2.52643e-05 1.60847e-06 -1.65783e-05
-2.58051e-05 5.0247e-06 -1.6928e-05
-2.67612e-05 8.98746e-06 -1.75673e-05
-2.64424e-05 -1.47288e-05 -1.80653e-05
-5.54172e-06 -2.7643e-05 -1.75331e-05
-8.47836e-06 -2.48486e-05 -1.69045e-05
-1.1173e-05 -2.26905e-05 -1.65602e-05
-1.39746e-05 -2.10929e-05 -1.65635e-05
-1.72199e-05 -1.9874e-05 -1.69404e-05
-2.11398e-05 -1.87531e-05 -1.75656e-05
8.98022e-08 -3.01457e-05 -1.80325e-05
2.11296e-05 -1.86288e-05 -1.75149e-05
1.72496e-05 -1.97671e-05 -1.68767e-05
1.40379e-05 -2.10168e-05 -1.65156e-05
1.1228e-05 -2.25993e-05 -1.65502e-05
8.58296e-06 -2.47868e-05 -1.6878e-05
5.65529e-06 -2.76333e-05 -1.75384e-05
2.61303e-05 -1.5063e-05 -1.80315e-05
2.67231e-05 8.9413e-06 -1.75049e-05
2.57287e-05 5.05144e-06 -1.69122e-05
2.52135e-05 1.62396e-06 -1.65272e-05
2.52106e-05 -1.60006e-06 -1.65255e-05
2.57574e-05 -4.99922e-06 -1.68921e-05
2.67052e-05 -8.92004e-06 -1.75131e-05
2.61133e-05 1.50641e-05 -1.80285e-05
5.63374e-06 2.76247e-05 -1.7513e-05
8.51035e-06 2.48135e-05 -1.6915e-05
1.12199e-05 2.26473e-05 -1.65334e-05
1.40085e-05 2.10278e-05 -1.65287e-05
1.72266e-05 1.97983e-05 -1.68889e-05
2.11206e-05 1.86384e-05 -1.75288e-05
0 0 0
0 0 0
0 0 0
0 0 0
0 0 0
0 0 0
1.79404e-06 8.5892e-07 4.55348e-06
1.73817e-06 -8.2528e-07 4.462e-06
4.3204e-07 1.85e-06 4.49632e-06
4.36185e-07 -1.78098e-06 4.35725e-06
-1.84786e-06 2.09686e-08 4.42354e-06
-1.12331e-06 -1.30913e-06 4.15211e-06
-1.15944e-06 1.30706e-06 4.2009e-06
-2.25188e-05 -7.28981e-06 1.70036e-05
-2.22021e-05 7.3737e-06 1.69723e-05
-4.86148e-06 2.29045e-05 1.69407e-05
-4.85898e-06 -2.31377e-05 1.69676e-05
1.74259e-05 1.56394e-05 1.69335e-05
1.75735e-05 -1.55403e-05 1.69428e-05
2.10793e-05 3.16487e-06 1.63283e-05
-1.3957e-05 1.71558e-05 1.64823e-05
-1.3595e-05 -1.67457e-05 1.64138e-05
7.76984e-06 1.9825e-05 1.63351e-05
7.6868e-06 -2.03155e-05 1.64064e-05
2.14781e-05 -3.44481e-06 1.64041e-05
-2.11085e-05 6.5883e-09 1.62506e-05
-2.24258e-05 1.10026e-05 1.7457e-05
-1.87558e-05 9.25715e-06 1.66307e-05
-1.79876e-05 5.79706e-06 1.60401e-05
-1.4988e-05 7.45034e-06 1.54901e-05
-1.42283e-05 4.3089e-06 1.48335e-05
-1.15357e-05 5.74543e-06 1.40984e-05
-1.08609e-05 3.06956e-06 1.33771e-05
-8.40271e-06 4.30601e-06 1.24077e-05
-9.06124e-06 7.01529e-06 1.34599e-05
-6.20573e-06 5.48994e-06 1.16921e-05
-6.83014e-06 8.25166e-06 1.30834e-05
-4.28251e-06 6.67664e-06 1.14536e-05
-4.80131e-06 9.61251e-06 1.30974e-05
-2.40151e-06 7.99544e-06 1.17261e-05
-2.81362e-06 1.11702e-05 1.34785e-05
-4.75543e-07 9.59784e-06 1.25043e-05
-7.38563e-07 1.30004e-05 1.41454e-05
1.73154e-06 1.15209e-05 1.35385e-05
-5.53621e-06 1.27039e-05 1.44407e-05
1.68552e-06 8.22613e-06 1.17507e-05
4.00525e-06 1.01236e-05 1.31544e-05
3.70631e-06 7.0998e-06 1.14813e-05
6.06904e-06 8.96909e-06 1.31168e-05
5.76833e-06 6.10839e-06 1.17387e-05
8.36034e-06 8.0225e-06 1.34956e-05
8.1078e-06 5.19665e-06 1.25037e-05
1.0957e-05 7.09898e-06 1.41506e-05
1.07489e-05 4.32397e-06 1.35026e-05
8.53286e-06 1.10405e-05 1.44645e-05
7.93977e-06 2.64444e-06 1.17306e-05
1.06489e-05 1.73767e-06 1.31075e-05
7.95076e-06 3.58854e-07 1.14587e-05
1.08093e-05 -7.59317e-07 1.31276e-05
8.11377e-06 -1.93831e-06 1.17123e-05
1.11013e-05 -3.31375e-06 1.34875e-05
8.47198e-06 -4.42516e-06 1.24474e-05
1.15068e-05 -6.00451e-06 1.4113e-05
8.95799e-06 -7.14004e-06 1.34316e-05
6.14913e-06 -5.49586e-06 1.16444e-05
6.64628e-06 -8.3031e-06 1.30217e-05
4.10627e-06 -6.59023e-06 1.1314e-05
4.52457e-06 -9.55345e-06 1.29918e-05
2.24288e-06 -7.86034e-06 1.16005e-05
2.4855e-06 -1.10049e-05 1.33545e-05
2.25344e-07 -9.37618e-06 1.23569e-05
3.30092e-07 -1.27733e-05 1.40375e-05
-1.91596e-06 -1.11537e-05 1.33806e-05
-1.84156e-06 -7.92369e-06 1.15853e-05
-4.16903e-06 -9.87751e-06 1.30885e-05
-3.81494e-06 -6.73225e-06 1.13202e-05
-6.34734e-06 -8.66436e-06 1.31028e-05
-5.89284e-06 -5.6995e-06 1.16316e-05
-8.50202e-06 -7.4378e-06 1.33832e-05
-8.16972e-06 -4.72931e-06 1.2412e-05
-1.10987e-05 -6.4045e-06 1.40736e-05
-4.37286e-06 -1.31268e-05 1.44374e-05
-1.08118e-05 -3.65167e-06 1.34428e-05
7.2281e-06 -1.13759e-05 1.42767e-05
-7.74373e-06 1.9832e-06 1.1496e-05
-1.32198e-05 1.03534e-06 1.42147e-05
1.72957e-06 1.50869e-05 1.4956e-05
1.37719e-05 4.62369e-07 1.43916e-05
1.3847e-05 6.10178e-06 1.49355e-05
-9.69673e-06 1.01991e-05 1.45363e-05
-5.41738e-06 -3.19846e-06 1.01849e-05
-1.17168e-05 -9.29986e-06 1.4893e-05
1.18856e-05 -8.76261e-06 1.47909e-05
1.47858e-05 -7.47565e-06 1.54072e-05
-1.39635e-05 -5.24533e-06 1.48655e-05
2.79657e-06 -1.45201e-05 1.48e-05
4.24657e-07 -1.65039e-05 1.54016e-05
3.51931e-06 4.39804e-06 9.58378e-06
1.40144e-05 9.30159e-06 1.54954e-05
1.79356e-05 8.14719e-06 1.63043e-05
-1.56797e-05 1.13983e-05 1.62373e-05
-1.09439e-06 1.67737e-05 1.54991e-05
1.90731e-06 1.96269e-05 1.63147e-05
-2.0924e-06 5.22138e-06 9.60028e-06
5.55533e-06 -7.84799e-07 9.59683e-06
3.58683e-06 -3.68447e-06 9.08452e-06
-1.78008e-06 -5.17986e-06 9.45225e-06
-2.24743e-05 -1.10137e-05 1.74777e-05
-1.88031e-05 -9.24389e-06 1.66547e-05
2.11532e-05 1.41682e-05 1.7509e-05
2.07591e-05 -1.4321e-05 1.7439e-05
-1.76489e-06 -2.54528e-05 1.75143e-05
-1.6824e-06 2.54169e-05 1.7519e-05
1.77177e-05 -1.191e-05 1.66909e-05
2.0651e-05 -1.07539e-05 1.71195e-05
3.77658e-06 -1.89903e-05 1.61433e-05
7.68685e-07 -2.03512e-05 1.64866e-05
-1.94101e-05 -1.26537e-05 1.71467e-05
-1.37349e-05 -2.30756e-06 1.44757e-05
-1.65973e-05 -3.70247e-06 1.54815e-05
-1.03786e-05 -1.09668e-06 1.29556e-05
2.44579e-05 1.10758e-05 1.7655e-05
2.55034e-05 -1.24064e-05 1.78514e-05
2.64955e-06 2.67325e-05 1.76638e-05
2.52129e-06 -2.64201e-05 1.76327e-05
3.34012e-06 -2.30379e-05 1.70327e-05
-2.05443e-06 -1.83248e-05 1.59547e-05
4.05983e-06 2.37975e-05 1.7134e-05
2.26199e-05 8.38166e-06 1.71229e-05
4.61481e-06 1.73181e-05 1.57312e-05
1.44309e-05 -1.31229e-05 1.61412e-05
-1.57919e-05 -1.09876e-05 1.62183e-05
-1.68044e-05 -3.81541e-07 1.53813e-05
1.73106e-05 4.68881e-06 1.57296e-05
6.55342e-08 -6.38892e-06 1.02703e-05
1.74213e-06 -4.84965e-06 9.09502e-06
5.85194e-06 -2.93626e-06 1.03811e-05
-2.145e-05 3.75166e-06 1.64627e-05
5.7309e-06 -1.6279e-05 1.55117e-05
9.08594e-06 -1.75039e-05 1.60015e-05
1.75768e-05 1.18847e-05 1.6676e-05
1.39981e-05 -1.63866e-05 1.64052e-05
1.0743e-05 -1.37928e-05 1.55541e-05
-3.54885e-06 -4.22123e-06 9.50341e-06
5.40045e-06 1.13878e-06 9.5017e-06
5.21935e-06 3.22368e-06 1.005e-05
-1.74995e-06 -2.83611e-05 1.788e-05
1.89252e-06 5.3002e-06 9.58712e-06
-1.13856e-07 6.10653e-06 1.00415e-05
-3.78586e-06 4.12876e-06 9.58107e-06
-5.62409e-06 3.03495e-06 1.02881e-05
-5.16673e-06 1.04093e-06 9.21616e-06
-7.52918e-06 -6.17557e-08 1.11755e-05
-4.33539e-06 -8.10467e-07 8.38417e-06
-3.1093e-06 1.87276e-06 7.37608e-06
-2.20871e-05 -3.6089e-06 1.65197e-05
2.34118e-05 -1.56914e-05 1.78393e-05
-1.50755e-06 2.11734e-05 1.66857e-05
2.12675e-05 -8.45463e-08 1.62298e-05
1.76269e-05 -1.64727e-06 1.55854e-05
1.73524e-05 -4.94306e-06 1.57746e-05
2.18972e-05 -7.45325e-06 1.69173e-05
-2.31877e-05 -1.42578e-05 1.78359e-05
1.73294e-05 1.64935e-06 1.55125e-05
-1.73415e-06 2.84796e-05 1.78973e-05
-4.2217e-07 3.68426e-06 7.49736e-06
2.37775e-05 1.57457e-05 1.78877e-05
-1.7502e-05 1.56461e-05 1.69786e-05
-1.06292e-05 -1.84711e-05 1.62591e-05
-1.01024e-05 -1.43462e-05 1.55756e-05
-7.50983e-06 -1.60993e-05 1.5626e-05
-7.32401e-06 -2.0126e-05 1.63992e-05
-1.07074e-05 1.85403e-05 1.62708e-05
-1.03502e-05 1.4388e-05 1.56233e-05
-7.77462e-06 2.0498e-05 1.64481e-05
-4.25408e-06 1.86147e-05 1.60568e-05
1.07626e-05 1.83505e-05 1.62302e-05
1.38955e-05 1.69394e-05 1.64349e-05
1.40458e-05 1.29763e-05 1.60551e-05
-7.36359e-06 1.62928e-05 1.56425e-05
1.0528e-05 1.4551e-05 1.56492e-05
7.75086e-06 1.60968e-05 1.56179e-05
-3.11718e-06 -1.8992e-06 7.39521e-06
-7.25965e-06 -1.24254e-05 1.4629e-05
3.00932e-06 4.03695e-08 6.60278e-06
4.8739e-06 1.35265e-05 1.4622e-05
1.40799e-05 -2.26102e-06 1.45743e-05
-1.72944e-05 -1.52205e-05 1.69492e-05
-1.73712e-05 2.42099e-06 1.56018e-05
-1.2208e-05 8.91434e-06 1.49473e-05
-7.70764e-06 -2.29311e-06 1.15579e-05
-1.24532e-05 1.18158e-05 1.55439e-05
-1.4277e-07 -3.75509e-06 7.55627e-06
2.73085e-06 2.2726e-06 7.25393e-06
-2.00442e-06 -1.46545e-05 1.48119e-05
9.36765e-06 -1.0071e-05 1.43932e-05
1.38645e-05 3.15869e-06 1.457e-05
-7.34207e-06 1.12024e-05 1.42641e-05
4.99858e-06 -1.27783e-05 1.43731e-05
1.10349e-05 1.04334e-05 1.49235e-05
-3.59743e-06 1.46893e-05 1.49119e-05
-4.63672e-06 -1.66214e-05 1.55528e-05
-1.95121e-05 1.28956e-05 1.71648e-05
-2.31325e-05 1.48615e-05 1.78466e-05
-1.29085e-05 -1.26895e-05 1.58164e-05
3.76168e-06 -1.5865e-06 7.90915e-06
1.7648e-06 2.92295e-06 7.08639e-06
-9.23303e-06 -1.06124e-05 1.45357e-05
1.72813e-06 -2.8238e-06 6.93298e-06
9.94885e-07 2.4123e-05 1.7312e-05
2.13733e-05 1.11968e-05 1.73022e-05
-1.46686e-05 -7.95554e-06 1.54892e-05
1.37118e-05 -4.78765e-06 1.46945e-05
-1.91033e-06 -2.17687e-05 1.68064e-05
1.80652e-05 -8.42136e-06 1.63445e-05
-1.66834e-05 -6.33031e-06 1.57863e-05
-4.32993e-07 -1.92273e-06 4.79978e-06
-1.80579e-06 2.99613e-06 7.17916e-06
-2.50577e-05 -1.2985e-05 1.79255e-05
-2.51329e-05 -1.45106e-05 1.80053e-05
-2.50509e-05 1.30369e-05 1.79092e-05
-2.51238e-05 1.46533e-05 1.79853e-05
-1.64884e-06 -3.12556e-06 7.21191e-06
6.32969e-06 1.13715e-05 1.40804e-05
5.33781e-07 -2.40922e-05 1.73057e-05
-5.2289e-07 1.80992e-06 4.64627e-06
7.40951e-06 -1.43477e-05 1.51564e-05
2.33085e-05 -1.32126e-05 1.77321e-05
2.36384e-05 -1.05404e-05 1.74943e-05
1.19918e-05 -1.8216e-05 1.62973e-05
1.47341e-05 -1.01494e-05 1.57995e-05
-1.00298e-05 1.00152e-06 1.27582e-05
-1.74038e-06 -8.16074e-07 4.72474e-06
7.69242e-07 3.70922e-06 7.57526e-06
2.3436e-06 -1.99761e-06 6.5571e-06
2.01619e-05 5.89955e-06 1.64575e-05
5.0713e-06 2.06015e-05 1.64999e-05
3.42129e-07 -2.76866e-05 1.78573e-05
-1.73159e-06 7.0926e-07 4.60757e-06
-3.21224e-06 6.23188e-07 6.82603e-06
3.57805e-06 1.47576e-06 7.63876e-06
4.99249e-07 2.83304e-05 1.79305e-05
2.47661e-05 1.37374e-05 1.79216e-05
-2.03337e-05 1.55394e-05 1.74325e-05
1.17896e-06 1.36476e-06 4.46107e-06
-2.0645e-05 -1.5732e-05 1.75311e-05
-1.90042e-05 -2.32288e-06 1.59502e-05
-1.95644e-05 -5.5866e-06 1.63362e-05
9.05888e-07 -3.2485e-06 7.00805e-06
-4.36713e-06 -1.97947e-05 1.63257e-05
-7.93951e-06 1.38383e-05 1.51051e-05
1.16599e-06 -1.30446e-06 4.34048e-06
1.19377e-05 -1.12315e-05 1.52961e-05
6.1344e-06 -2.27022e-05 1.68243e-05
-1.45262e-05 1.43592e-05 1.63276e-05
7.93129e-06 1.3325e-05 1.4952e-05
1.79404e-06 8.5892e-07 -4.55348e-06
1.73817e-06 -8.2528e-07 -4.462e-06
4.3204e-07 1.85e-06 -4.49632e-06
4.36185e-07 -1.78098e-06 -4.35725e-06
-1.84786e-06 2.09686e-08 -4.42354e-06
-1.12331e-06 -1.30913e-06 -4.15211e-06
-1.15944e-06 1.30706e-06 -4.2009e-06
-2.25188e-05 -7.28981e-06 -1.70036e-05
-2.22021e-05 7.3737e-06 -1.69723e-05
-4.86148e-06 2.29045e-05 -1.69407e-05
-4.85898e-06 -2.31377e-05 -1.69676e-05
1.74259e-05 1.56394e-05 -1.69335e-05
1.75735e-05 -1.55403e-05 -1.69428e-05
2.10793e-05 3.16487e-06 -1.63283e-05
-1.3957e-05 1.71558e-05 -1.64823e-05
-1.3595e-05 -1.67457e-05 -1.64138e-05
7.76984e-06 1.9825e-05 -1.63351e-05
7.6868e-06 -2.03155e-05 -1.64064e-05
2.14781e-05 -3.44481e-06 -1.64041e-05
-2.11085e-05 6.5883e-09 -1.62506e-05
-2.24258e-05 1.10026e-05 -1.7457e-05
-1.87558e-05 9.25715e-06 -1.66307e-05
-1.79876e-05 5.79706e-06 -1.60401e-05
-1.4988e-05 7.45034e-06 -1.54901e-05
-1.42283e-05 4.3089e-06 -1.48335e-05
-1.15357e-05 5.74543e-06 -1.40984e-05
-1.08609e-05 3.06956e-06 -1.33771e-05
-8.40271e-06 4.30601e-06 -1.24077e-05
-9.06124e-06 7.01529e-06 -1.34599e-05
-6.20573e-06 5.48994e-06 -1.16921e-05
-6.83014e-06 8.25166e-06 -1.30834e-05
-4.28251e-06 6.67664e-06 -1.14536e-05
-4.80131e-06 9.61251e-06 -1.30974e-05
-2.40151e-06 7.99544e-06 -1.17261e-05
-2.81362e-06 1.11702e-05 -1.34785e-05
-4.75543e-07 9.59784e-06 -1.25043e-05
-7.38563e-07 1.30004e-05 -1.41454e-05
1.73154e-06 1.15209e-05 -1.35385e-05
-5.53621e-06 1.27039e-05 -1.44407e-05
1.68552e-06 8.22613e-06 -1.17507e-05
4.00525e-06 1.01236e-05 -1.31544e-05
3.70631e-06 7.0998e-06 -1.14813e-05
6.06904e-06 8.96909e-06 -1.31168e-05
5.76833e-06 6.10839e-06 -1.17387e-05
8.36034e-06 8.0225e-06 -1.34956e-05
8.1078e-06 5.19665e-06 -1.25037e-05
1.0957e-05 7.09898e-06 -1.41506e-05
1.07489e-05 4.32397e-06 -1.35026e-05
8.53286e-06 1.10405e-05 -1.44645e-05
7.93977e-06 2.64444e-06 -1.17306e-05
1.06489e-05 1.73767e-06 -1.31075e-05
7.95076e-06 3.58854e-07 -1.14587e-05
1.08093e-05 -7.59317e-07 -1.31276e-05
8.11377e-06 -1.93831e-06 -1.17123e-05
1.11013e-05 -3.31375e-06 -1.34875e-05
8.47198e-06 -4.42516e-06 -1.24474e-05
1.15068e-05 -6.00451e-06 -1.4113e-05
8.95799e-06 -7.14004e-06 -1.34316e-05
6.14913e-06 -5.49586e-06 -1.16444e-05
6.64628e-06 -8.3031e-06 -1.30217e-05
4.10627e-06 -6.59023e-06 -1.1314e-05
4.52457e-06 -9.55345e-06 -1.29918e-05
2.24288e-06 -7.86034e-06 -1.16005e-05
2.4855e-06 -1.10049e-05 -1.33545e-05
2.25344e-07 -9.37618e-06 -1.23569e-05
3.30092e-07 -1.27733e-05 -1.40375e-05
-1.91596e-06 -1.11537e-05 -1.33806e-05
-1.84156e-06 -7.92369e-06 -1.15853e-05
-4.16903e-06 -9.87751e-06 -1.30885e-05
-3.81494e-06 -6.73225e-06 -1.13202e-05
-6.34734e-06 -8.66436e-06 -1.31028e-05
-5.89284e-06 -5.6995e-06 -1.16316e-05
-8.50202e-06 -7.4378e-06 -1.33832e-05
-8.16972e-06 -4.72931e-06 -1.2412e-05
-1.10987e-05 -6.4045e-06 -1.40736e-05
-4.37286e-06 -1.31268e-05 -1.44374e-05
-1.08118e-05 -3.65167e-06 -1.34428e-05
7.2281e-06 -1.13759e-05 -1.42767e-05
-7.74373e-06 1.9832e-06 -1.1496e-05
-1.32198e-05 1.03534e-06 -1.42147e-05
1.72957e-06 1.50869e-05 -1.4956e-05
1.37719e-05 4.62369e-07 -1.43916e-05
1.3847e-05 6.10178e-06 -1.49355e-05
-9.69673e-06 1.01991e-05 -1.45363e-05
-5.41738e-06 -3.19846e-06 -1.01849e-05
-1.17168e-05 -9.29986e-06 -1.4893e-05
1.18856e-05 -8.76261e-06 -1.47909e-05
1.47858e-05 -7.47565e-06 -1.54072e-05
-1.39635e-05 -5.24533e-06 -1.48655e-05
2.79657e-06 -1.45201e-05 -1.48e-05
4.24657e-07 -1.65039e-05 -1.54016e-05
3.51931e-06 4.39804e-06 -9.58378e-06
1.40144e-05 9.30159e-06 -1.54954e-05
1.79356e-05 8.14719e-06 -1.63043e-05
-1.56797e-05 1.13983e-05 -1.62373e-05
-1.09439e-06 1.67737e-05 -1.54991e-05
1.90731e-06 1.96269e-05 -1.63147e-05
-2.0924e-06 5.22138e-06 -9.60028e-06
5.55533e-06 -7.84799e-07 -9.59683e-06
3.58683e-06 -3.68447e-06 -9.08452e-06
-1.78008e-06 -5.17986e-06 -9.45225e-06
-2.24743e-05 -1.10137e-05 -1.74777e-05
-1.88031e-05 -9.24389e-06 -1.66547e-05
2.11532e-05 1.41682e-05 -1.7509e-05
2.07591e-05 -1.4321e-05 -1.7439e-05
-1.76489e-06 -2.54528e-05 -1.75143e-05
-1.6824e-06 2.54169e-05 -1.7519e-05
1.77177e-05 -1.191e-05 -1.66909e-05
2.0651e-05 -1.07539e-05 -1.71195e-05
3.77658e-06 -1.89903e-05 -1.61433e-05
7.68685e-07 -2.03512e-05 -1.64866e-05
-1.94101e-05 -1.26537e-05 -1.71467e-05
-1.37349e-05 -2.30756e-06 -1.44757e-05
-1.65973e-05 -3.70247e-06 -1.54815e-05
-1.03786e-05 -1.09668e-06 -1.29556e-05
2.44579e-05 1.10758e-05 -1.7655e-05
2.55034e-05 -1.24064e-05 -1.78514e-05
2.64955e-06 2.67325e-05 -1.76638e-05
2.52129e-06 -2.64201e-05 -1.76327e-05
3.34012e-06 -2.30379e-05 -1.70327e-05
-2.05443e-06 -1.83248e-05 -1.59547e-05
4.05983e-06 2.37975e-05 -1.7134e-05
2.26199e-05 8.38166e-06 -1.71229e-05
4.61481e-06 1.73181e-05 -1.57312e-05
1.44309e-05 -1.31229e-05 -1.61412e-05
-1.57919e-05 -1.09876e-05 -1.62183e-05
-1.68044e-05 -3.81541e-07 -1.53813e-05
1.73106e-05 4.68881e-06 -1.57296e-05
6.55342e-08 -6.38892e-06 -1.02703e-05
1.74213e-06 -4.84965e-06 -9.09502e-06
5.85194e-06 -2.93626e-06 -1.03811e-05
-2.145e-05 3.75166e-06 -1.64627e-05
5.7309e-06 -1.6279e-05 -1.55117e-05
9.08594e-06 -1.75039e-05 -1.60015e-05
1.75768e-05 1.18847e-05 -1.6676e-05
1.39981e-05 -1.63866e-05 -1.64052e-05
1.0743e-05 -1.37928e-05 -1.55541e-05
-3.54885e-06 -4.22123e-06 -9.50341e-06
5.40045e-06 1.13878e-06 -9.5017e-06
5.21935e-06 3.22368e-06 -1.005e-05
-1.74995e-06 -2.83611e-05 -1.788e-05
1.89252e-06 5.3002e-06 -9.58712e-06
-1.13856e-07 6.10653e-06 -1.00415e-05
-3.78586e-06 4.12876e-06 -9.58107e-06
-5.62409e-06 3.03495e-06 -1.02881e-05
-5.16673e-06 1.04093e-06 -9.21616e-06
-7.52918e-06 -6.17557e-08 -1.11755e-05
-4.33539e-06 -8.10467e-07 -8.38417e-06
-3.1093e-06 1.87276e-06 -7.37608e-06
-2.20871e-05 -3.6089e-06 -1.65197e-05
2.34118e-05 -1.56914e-05 -1.78393e-05
-1.50755e-06 2.11734e-05 -1.66857e-05
2.12675e-05 -8.45463e-08 -1.62298e-05
1.76269e-05 -1.64727e-06 -1.55854e-05
1.73524e-05 -4.94306e-06 -1.57746e-05
2.18972e-05 -7.45325e-06 -1.69173e-05
-2.31877e-05 -1.42578e-05 -1.78359e-05
1.73294e-05 1.64935e-06 -1.55125e-05
-1.73415e-06 2.84796e-05 -1.78973e-05
-4.2217e-07 3.68426e-06 -7.49736e-06