# vtk DataFile Version 3.0
vtk output at time 150
ASCII
DATASET UNSTRUCTURED_GRID
POINTS 626 float
-3.68058e-05 0.000978749 0 3.68058e-05 0.000978749 0 -0.000829194 0.00052125 0 
-0.0008235 0.0005 0 -0.000866 0.0004575 0 -0.000866 -0.0004575 0 
-0.0008235 -0.0005 0 -0.000829194 -0.00052125 0 -3.68058e-05 -0.000978749 0 
3.68058e-05 -0.000978749 0 0.000829194 -0.00052125 0 0.000866 -0.0004575 0 
0.000866 0.0004575 0 0.000829194 0.00052125 0 8.5e-05 0 0 
-3.68058e-05 0.000978749 -0.001 3.68058e-05 0.000978749 -0.001 -0.000829194 0.00052125 -0.001 
-0.0008235 0.0005 -0.001 -0.000866 0.0004575 -0.001 -0.000866 -0.0004575 -0.001 
-0.0008235 -0.0005 -0.001 -0.000829194 -0.00052125 -0.001 -3.68058e-05 -0.000978749 -0.001 
3.68058e-05 -0.000978749 -0.001 0.000829194 -0.00052125 -0.001 0.000866 -0.0004575 -0.001 
0.000866 0.0004575 -0.001 0.000829194 0.00052125 -0.001 8.5e-05 0 -0.001 
8.46223e-17 0.0009575 0 -0.000715996 0.000586607 0 -0.000602797 0.000651965 0 
-0.000489599 0.000717321 0 -0.000376401 0.000782678 0 -0.000263202 0.000848036 0 
-0.000150004 0.000913393 0 -0.000835948 0.000469948 0 -0.000866 -0.000326786 0 
-0.000866 -0.000196071 0 -0.000866 -6.53571e-05 0 -0.000866 6.53571e-05 0 
-0.000866 0.000196071 0 -0.000866 0.000326786 0 -0.000835948 -0.000469948 0 
-0.000150004 -0.000913393 0 -0.000263202 -0.000848036 0 -0.000376401 -0.000782678 0 
-0.000489599 -0.000717321 0 -0.000602797 -0.000651965 0 -0.000715996 -0.000586607 0 
8.47648e-17 -0.0009575 0 0.000715996 -0.000586607 0 0.000602797 -0.000651965 0 
0.000489599 -0.000717321 0 0.000376401 -0.000782678 0 0.000263202 -0.000848036 0 
0.000150004 -0.000913393 0 0.000829194 -0.00047875 0 0.000866 0.000326786 0 
0.000866 0.000196071 0 0.000866 6.53571e-05 0 0.000866 -6.53571e-05 0 
0.000866 -0.000196071 0 0.000866 -0.000326786 0 0.000829194 0.00047875 0 
0.000150004 0.000913393 0 0.000263202 0.000848036 0 0.000376401 0.000782678 0 
0.000489599 0.000717321 0 0.000602797 0.000651965 0 0.000715996 0.000586607 0 
5.29966e-05 6.64557e-05 0 -1.89143e-05 8.28689e-05 0 -7.65824e-05 3.68801e-05 0 
-7.65824e-05 -3.68801e-05 0 -1.89143e-05 -8.28689e-05 0 5.29966e-05 -6.64557e-05 0 
8.46223e-17 0.0009575 -0.001 -0.000715996 0.000586607 -0.001 -0.000602797 0.000651965 -0.001 
-0.000489599 0.000717321 -0.001 -0.000376401 0.000782678 -0.001 -0.000263202 0.000848036 -0.001 
-0.000150004 0.000913393 -0.001 -0.000835948 0.000469948 -0.001 -0.000866 -0.000326786 -0.001 
-0.000866 -0.000196071 -0.001 -0.000866 -6.53571e-05 -0.001 -0.000866 6.53571e-05 -0.001 
-0.000866 0.000196071 -0.001 -0.000866 0.000326786 -0.001 -0.000835948 -0.000469948 -0.001 
-0.000150004 -0.000913393 -0.001 -0.000263202 -0.000848036 -0.001 -0.000376401 -0.000782678 -0.001 
-0.000489599 -0.000717321 -0.001 -0.000602797 -0.000651965 -0.001 -0.000715996 -0.000586607 -0.001 
8.47648e-17 -0.0009575 -0.001 0.000715996 -0.000586607 -0.001 0.000602797 -0.000651965 -0.001 
0.000489599 -0.000717321 -0.001 0.000376401 -0.000782678 -0.001 0.000263202 -0.000848036 -0.001 
0.000150004 -0.000913393 -0.001 0.000829194 -0.00047875 -0.001 0.000866 0.000326786 -0.001 
0.000866 0.000196071 -0.001 0.000866 6.53571e-05 -0.001 0.000866 -6.53571e-05 -0.001 
0.000866 -0.000196071 -0.001 0.000866 -0.000326786 -0.001 0.000829194 0.00047875 -0.001 
0.000150004 0.000913393 -0.001 0.000263202 0.000848036 -0.001 0.000376401 0.000782678 -0.001 
0.000489599 0.000717321 -0.001 0.000602797 0.000651965 -0.001 0.000715996 0.000586607 -0.001 
5.29966e-05 6.64557e-05 -0.001 -1.89143e-05 8.28689e-05 -0.001 -7.65824e-05 3.68801e-05 -0.001 
-7.65824e-05 -3.68801e-05 -0.001 -1.89143e-05 -8.28689e-05 -0.001 5.29966e-05 -6.64557e-05 -0.001 
0.000131234 6.38474e-05 0 0.00012964 -6.2443e-05 0 3.13827e-05 0.0001394 0 
3.12554e-05 -0.000136939 0 -0.000140461 8.25467e-19 0 -8.90565e-05 -0.000102707 0 
-9.04142e-05 0.000102872 0 -0.000765769 -0.00025965 0 -0.000756873 0.000262774 0 
-0.00015609 0.000787505 0 -0.000155807 -0.00079355 0 0.000605069 0.000528035 0 
0.000608694 -0.00052497 0 0.000744069 0.000116929 0 -0.000494418 0.000596218 0 
-0.000483866 -0.000584648 0 0.000269496 0.000702219 0 0.000263201 -0.000717324 0 
0.000754429 -0.000127825 0 -0.000748858 5.84659e-07 0 -0.000747838 0.000373886 0 
-0.0006542 0.000324842 0 -0.000645137 0.000210123 0 -0.000550884 0.000274171 0 
-0.000538857 0.000163195 0 -0.00045062 0.000224461 0 -0.000438393 0.000123907 0 
-0.000354088 0.000181668 0 -0.000363908 0.000282171 0 -0.000270361 0.000239477 0 
-0.000279138 0.000337653 0 -0.000188888 0.000294791 0 -0.000196448 0.000393271 0 
-0.000104767 0.000348259 0 -0.000113332 0.000449012 0 -2.01066e-05 0.000403223 0 
-2.89189e-05 0.000507105 0 6.9524e-05 0.000461596 0 -0.000213644 0.000490203 0 
7.33757e-05 0.000357726 0 0.000163331 0.00041299 0 0.000163359 0.000313022 0 
0.000248077 0.000366368 0 0.000250914 0.000265758 0 0.000335709 0.000322266 0 
0.000340555 0.000218148 0 0.000427299 0.000276717 0 0.000431508 0.000173093 0 
0.000328731 0.000425633 0 0.00034586 0.000114823 0 0.000435362 7.05241e-05 0 
0.000350892 1.5455e-05 0 0.000441547 -3.11896e-05 0 0.000353547 -8.47783e-05 0 
0.000445767 -0.000132964 0 0.000356135 -0.000186358 0 0.000449094 -0.000234674 0 
0.000359978 -0.000287876 0 0.00026856 -0.000240545 0 0.000271895 -0.000341045 0 
0.000181792 -0.00029305 0 0.00018533 -0.000392851 0 9.75701e-05 -0.00034483 0 
9.98764e-05 -0.000444884 0 8.75116e-06 -0.000396343 0 1.20916e-05 -0.000500496 0 
-7.83929e-05 -0.000449843 0 -8.1471e-05 -0.000347249 0 -0.000171566 -0.000403733 0 
-0.000169889 -0.000298891 0 -0.000259867 -0.000354132 0 -0.000257696 -0.000249137 0 
-0.00034313 -0.000299896 0 -0.000344514 -0.000199127 0 -0.000434309 -0.000250039 0 
-0.000169832 -0.000505815 0 -0.000435227 -0.000146227 0 0.000280331 -0.000442424 0 
-0.000340889 8.76793e-05 0 -0.000515252 4.06198e-05 0 6.50491e-05 0.000568253 0 
0.00053278 1.74743e-05 0 0.000522071 0.000229831 0 -0.00037162 0.000391659 0 
-0.000255272 -0.000150439 0 -0.000442893 -0.000350705 0 0.000450067 -0.000332559 0 
0.000545175 -0.000276306 0 -0.000527797 -0.000197598 0 0.000105306 -0.000551033 0 
1.45836e-05 -0.000609147 0 0.00017145 0.000214453 0 0.000515525 0.000341711 0 
0.000636086 0.000290368 0 -0.000558657 0.000404468 0 -4.01232e-05 0.000616718 0 
6.60192e-05 0.000696422 0 -0.000101806 0.0002546 0 0.000271142 -3.88908e-05 0 
0.000179455 -0.00018534 0 -8.79553e-05 -0.000254307 0 -0.000749267 -0.000373451 0 
-0.000655941 -0.000323397 0 0.000709746 0.000466718 0 0.000698426 -0.000473086 0 
-5.25801e-05 -0.00084886 0 -4.93005e-05 0.000848038 0 0.000617396 -0.000413362 0 
0.000702056 -0.000369817 0 0.000131459 -0.000679171 0 2.48171e-05 -0.000715924 0 
-0.000664217 -0.00042729 0 -0.000528828 -8.80444e-05 0 -0.000611101 -0.000136672 0 
-0.000426972 -4.45841e-05 0 0.000800669 0.000378216 0 0.000821144 -0.000415062 0 
7.2799e-05 0.00088254 0 6.81831e-05 -0.00087503 0 0.000104963 -0.000788946 0 
-7.40696e-05 -0.000660054 0 0.000126061 0.000809943 0 0.000764361 0.000295682 0 
0.000166862 0.000630623 0 0.000516462 -0.00046707 0 -0.000563585 -0.000389606 0 
-0.000622598 -1.40238e-05 0 0.000629891 0.000171529 0 2.5614e-06 -0.000299794 0 
8.6901e-05 -0.00024329 0 0.000272045 -0.000136982 0 -0.00075148 0.000138321 0 
0.000209366 -0.000599589 0 0.000324913 -0.000630055 0 0.000614044 0.00041245 0 
0.00049651 -0.000573327 0 0.000394822 -0.000507321 0 -0.000173714 -0.000206698 0 
0.000264897 5.63722e-05 0 0.000247997 0.000152811 0 -4.63327e-05 -0.000920208 0 
9.18688e-05 0.000258626 0 -5.54111e-06 0.000290558 0 -0.000184219 0.000201484 0 
-0.000263559 0.000142267 0 -0.000256427 5.13624e-05 0 -0.000336894 -2.06179e-06 0 
-0.000228499 -4.2388e-05 0 -0.00017589 0.000106626 0 -0.000769947 -0.000133367 0 
0.000767591 -0.000500293 0 -5.05874e-05 0.000737978 0 0.000754456 -3.51771e-06 0 
0.00064691 -6.15298e-05 0 0.000630483 -0.00018134 0 0.000749187 -0.000265543 0 
-0.000760805 -0.000462521 0 0.000638155 6.09315e-05 0 -4.46661e-05 0.000922995 0 
-2.37945e-05 0.000207237 0 0.000776979 0.000500181 0 -0.000605691 0.000527596 0 
-0.000377914 -0.000653727 0 -0.000372325 -0.000526022 0 -0.000275829 -0.000589621 0 
-0.000254285 -0.000710579 0 -0.000379307 0.000656222 0 -0.000379818 0.00052718 0 
-0.000266817 0.000721555 0 -0.000150544 0.000668174 0 0.000381963 0.00065079 0 
0.000493113 0.000590432 0 0.000505439 0.000463708 0 -0.000269094 0.000596608 0 
0.000385815 0.000532045 0 0.000283599 0.0005899 0 -0.000176405 -0.000108505 0 
-0.000278769 -0.000475415 0 0.000185395 2.33014e-06 0 0.000186773 0.000517571 0 
0.000540032 -8.68444e-05 0 -0.000600694 -0.000514877 0 -0.00063703 8.98033e-05 0 
-0.000459677 0.000335729 0 -0.000338836 -0.000100751 0 -0.000457327 0.000432721 0 
-8.72007e-06 -0.000210238 0 0.000156073 0.000129496 0 -7.70692e-05 -0.000555049 0 
0.00036091 -0.000389728 0 0.000531628 0.000120564 0 -0.000285451 0.000435562 0 
0.000192719 -0.000494604 0 0.00041642 0.00039368 0 -0.000135943 0.000554637 0 
-0.000170665 -0.000610079 0 -0.000666304 0.000434981 0 -0.000758736 0.000479231 0 
-0.000470189 -0.000458901 0 0.000203433 -8.59809e-05 0 0.000101846 0.000170114 0 
-0.00035513 -0.00040726 0 0.000100184 -0.000165831 0 2.96286e-05 0.00081537 0 
0.000720946 0.000381836 0 -0.000539809 -0.000292001 0 0.00052211 -0.000182426 0 
-6.41339e-05 -0.000753908 0 0.000638039 -0.000299861 0 -0.000605136 -0.000230182 0 
-3.41638e-05 -0.000145561 0 -0.000104037 0.000172396 0 -0.000808575 -0.00042774 0 
-0.000807207 -0.000465052 0 -0.00080817 0.000429771 0 -0.000806589 0.000469738 0 
-9.50634e-05 -0.000178909 0 0.000247777 0.000445058 0 1.48293e-05 -0.000814201 0 
-4.11555e-05 0.000140955 0 0.000276104 -0.000536845 0 0.000765969 -0.000436638 0 
0.000780871 -0.000362769 0 0.000424176 -0.000642018 0 0.00053413 -0.000368009 0 
-0.000416333 4.17911e-05 0 -0.000133891 -6.23822e-05 0 4.2574e-05 0.000206312 0 
[...]
POINT_DATA 626
VECTORS displacement float
-1.74394e-06 3.09556e-05 1.80555e-05
1.73565e-06 3.09746e-05 1.81006e-05
-2.59873e-05 1.69934e-05 1.80876e-05
-2.58419e-05 1.60336e-05 1.80522e-05
-2.77216e-05 1.39734e-05 1.80696e-05
-2.77146e-05 -1.40196e-05 1.8095e-05
-2.58131e-05 -1.60717e-05 1.81064e-05
-2.59835e-05 -1.70115e-05 1.81676e-05
-1.6774e-06 -3.09593e-05 1.80519e-05
1.75544e-06 -3.09608e-05 1.81024e-05
2.59446e-05 -1.69812e-05 1.8044e-05
2.7718e-05 -1.39372e-05 1.80439e-05
2.76734e-05 1.399e-05 1.80922e-05
2.59159e-05 1.69935e-05 1.80465e-05
0 0 0
-1.74394e-06 3.09556e-05 -1.80555e-05
1.73565e-06 3.09746e-05 -1.81006e-05
-2.59873e-05 1.69934e-05 -1.80876e-05
-2.58419e-05 1.60336e-05 -1.80522e-05
-2.77216e-05 1.39734e-05 -1.80696e-05
-2.77146e-05 -1.40196e-05 -1.8095e-05
-2.58131e-05 -1.60717e-05 -1.81064e-05
-2.59835e-05 -1.70115e-05 -1.81676e-05
-1.6774e-06 -3.09593e-05 -1.80519e-05
1.75544e-06 -3.09608e-05 -1.81024e-05
2.59446e-05 -1.69812e-05 -1.8044e-05
2.7718e-05 -1.39372e-05 -1.80439e-05
2.76734e-05 1.399e-05 -1.80922e-05
2.59159e-05 1.69935e-05 -1.80465e-05
0 0 0
2.48896e-08 3.01554e-05 1.80347e-05
-2.11415e-05 1.8713e-05 1.75503e-05
-1.72333e-05 1.98346e-05 1.69214e-05
-1.40076e-05 2.10551e-05 1.65556e-05
-1.12073e-05 2.26659e-05 1.65494e-05
-8.52437e-06 2.4834e-05 1.6902e-05
-5.56791e-06 2.76229e-05 1.7538e-05
-2.64508e-05 1.46797e-05 1.8034e-05
-2.67698e-05 -9.012e-06 1.7578e-05
-2.58073e-05 -5.03577e-06 1.69266e-05
-2.52556e-05 -1.63631e-06 1.6572e-05
-2.52586e-05 1.60795e-06 1.6575e-05
-2.57996e-05 5.02317e-06 1.69248e-05
-2.6756e-05 8.98508e-06 1.75645e-05
-2.64377e-05 -1.4726e-05 1.80627e-05
-5.54116e-06 -2.76373e-05 1.75302e-05
-8.47689e-06 -2.4843e-05 1.69013e-05
-1.11705e-05 -2.26853e-05 1.65568e-05
-1.39712e-05 -2.10882e-05 1.65602e-05
-1.72157e-05 -1.987e-05 1.69373e-05
-2.11351e-05 -1.87498e-05 1.75628e-05
8.98336e-08 -3.01402e-05 1.80299e-05
2.11249e-05 -1.86255e-05 1.7512e-05
1.72455e-05 -1.9763e-05 1.68735e-05
1.40345e-05 -2.10121e-05 1.65122e-05
1.12255e-05 -2.2594e-05 1.65468e-05
8.58153e-06 -2.47812e-05 1.68748e-05
5.65478e-06 -2.76276e-05 1.75355e-05
2.61255e-05 -1.50602e-05 1.80289e-05
2.67178e-05 8.93888e-06 1.75021e-05
2.57231e-05 5.0499e-06 1.6909e-05
2.52077e-05 1.62342e-06 1.65238e-05
2.52048e-05 -1.59953e-06 1.65221e-05
2.57518e-05 -4.99768e-06 1.68889e-05
2.66999e-05 -8.91763e-06 1.75102e-05
2.61086e-05 1.50614e-05 1.80259e-05
5.63324e-06 2.76189e-05 1.75101e-05
8.5089e-06 2.48079e-05 1.69118e-05
1.12175e-05 2.26421e-05 1.653e-05
1.40051e-05 2.10231e-05 1.65254e-05
1.72225e-05 1.97942e-05 1.68857e-05
2.11159e-05 1.86351e-05 1.75259e-05
0 0 0
0 0 0
0 0 0
0 0 0
0 0 0
0 0 0
2.48896e-08 3.01554e-05 -1.80347e-05
-2.11415e-05 1.8713e-05 -1.75503e-05
-1.72333e-05 1.98346e-05 -1.69214e-05
-1.40076e-05 2.10551e-05 -1.65556e-05
-1.12073e-05 2.26659e-05 -1.65494e-05
-8.52437e-06 2.4834e-05 -1.6902e-05
-5.56791e-06 2.76229e-05 -1.7538e-05
-2.64508e-05 1.46797e-05 -1.8034e-05
-2.67698e-05 -9.012e-06 -1.7578e-05
-2.58073e-05 -5.03577e-06 -1.69266e-05
-2.52556e-05 -1.63631e-06 -1.6572e-05
-2.52586e-05 1.60795e-06 -1.6575e-05
-2.57996e-05 5.02317e-06 -1.69248e-05
-2.6756e-05 8.98508e-06 -1.75645e-05
-2.64377e-05 -1.4726e-05 -1.80627e-05
-5.54116e-06 -2.76373e-05 -1.75302e-05
-8.47689e-06 -2.4843e-05 -1.69013e-05
-1.11705e-05 -2.26853e-05 -1.65568e-05
-1.39712e-05 -2.10882e-05 -1.65602e-05
-1.72157e-05 -1.987e-05 -1.69373e-05
-2.11351e-05 -1.87498e-05 -1.75628e-05
8.98336e-08 -3.01402e-05 -1.80299e-05
2.11249e-05 -1.86255e-05 -1.7512e-05
1.72455e-05 -1.9763e-05 -1.68735e-05
1.40345e-05 -2.10121e-05 -1.65122e-05
1.12255e-05 -2.2594e-05 -1.65468e-05
8.58153e-06 -2.47812e-05 -1.68748e-05
5.65478e-06 -2.76276e-05 -1.75355e-05
2.61255e-05 -1.50602e-05 -1.80289e-05
2.67178e-05 8.93888e-06 -1.75021e-05
2.57231e-05 5.0499e-06 -1.6909e-05
2.52077e-05 1.62342e-06 -1.65238e-05
2.52048e-05 -1.59953e-06 -1.65221e-05
2.57518e-05 -4.99768e-06 -1.68889e-05
2.66999e-05 -8.91763e-06 -1.75102e-05
2.61086e-05 1.50614e-05 -1.80259e-05
5.63324e-06 2.76189e-05 -1.75101e-05
8.5089e-06 2.48079e-05 -1.69118e-05
1.12175e-05 2.26421e-05 -1.653e-05
1.40051e-05 2.10231e-05 -1.65254e-05
1.72225e-05 1.97942e-05 -1.68857e-05
2.11159e-05 1.86351e-05 -1.75259e-05
0 0 0
0 0 0
0 0 0
0 0 0
0 0 0
0 0 0
1.79374e-06 8.58774e-07 4.55244e-06
1.73787e-06 -8.25141e-07 4.46099e-06
4.31967e-07 1.84968e-06 4.49531e-06
4.36112e-07 -1.78069e-06 4.35627e-06
-1.84755e-06 2.0964e-08 4.42255e-06
-1.12312e-06 -1.30891e-06 4.15118e-06
-1.15924e-06 1.30684e-06 4.19996e-06
-2.2514e-05 -7.28801e-06 1.70005e-05
-2.21973e-05 7.37191e-06 1.69692e-05
-4.86061e-06 2.28995e-05 1.69376e-05
-4.85812e-06 -2.31326e-05 1.69645e-05
1.7422e-05 1.56361e-05 1.69304e-05
1.75695e-05 -1.55371e-05 1.69397e-05
2.10744e-05 3.16404e-06 1.6325e-05
-1.39537e-05 1.7152e-05 1.6479e-05
-1.35918e-05 -1.6742e-05 1.64105e-05
7.76816e-06 1.98204e-05 1.63318e-05
7.68517e-06 -2.03108e-05 1.64031e-05
2.14732e-05 -3.4439e-06 1.64008e-05
-2.11036e-05 6.58813e-09 1.62473e-05
-2.24212e-05 1.10002e-05 1.74541e-05
-1.87517e-05 9.25508e-06 1.66276e-05
-1.79835e-05 5.7957e-06 1.60369e-05
-1.49846e-05 7.44865e-06 1.54869e-05
-1.42251e-05 4.3079e-06 1.48302e-05
-1.15331e-05 5.74413e-06 1.40952e-05
-1.08585e-05 3.06886e-06 1.3374e-05
-8.40083e-06 4.30505e-06 1.24048e-05
-9.05918e-06 7.0137e-06 1.34568e-05
-6.20436e-06 5.48873e-06 1.16894e-05
-6.82859e-06 8.24979e-06 1.30804e-05
-4.28157e-06 6.67518e-06 1.14509e-05
-4.80021e-06 9.61033e-06 1.30943e-05
-2.40097e-06 7.99367e-06 1.17234e-05
-2.81297e-06 1.11677e-05 1.34754e-05
-4.75431e-07 9.59569e-06 1.25014e-05
-7.38387e-07 1.29975e-05 1.41422e-05
1.73115e-06 1.15183e-05 1.35354e-05
-5.53493e-06 1.27009e-05 1.44374e-05
1.68515e-06 8.22431e-06 1.1748e-05
4.00435e-06 1.01213e-05 1.31514e-05
3.7055e-06 7.09824e-06 1.14786e-05
6.06766e-06 8.96705e-06 1.31138e-05
5.76706e-06 6.10704e-06 1.1736e-05
8.35844e-06 8.02066e-06 1.34925e-05
8.10599e-06 5.19548e-06 1.25008e-05
1.09545e-05 7.09735e-06 1.41474e-05
1.07464e-05 4.32298e-06 1.34995e-05
8.53089e-06 1.1038e-05 1.44613e-05
7.93802e-06 2.64385e-06 1.17278e-05
1.06465e-05 1.73727e-06 1.31045e-05
7.94901e-06 3.58775e-07 1.1456e-05
1.08069e-05 -7.59145e-07 1.31246e-05
8.11198e-06 -1.93788e-06 1.17095e-05
1.10987e-05 -3.31299e-06 1.34844e-05
8.47009e-06 -4.42417e-06 1.24445e-05
1.15042e-05 -6.00314e-06 1.41099e-05
8.95595e-06 -7.13841e-06 1.34285e-05
6.14778e-06 -5.49464e-06 1.16417e-05
6.64478e-06 -8.30122e-06 1.30187e-05
4.10537e-06 -6.58878e-06 1.13113e-05
4.52355e-06 -9.55128e-06 1.29887e-05
2.24239e-06 -7.85861e-06 1.15978e-05
2.48494e-06 -1.10024e-05 1.33514e-05
2.25299e-07 -9.37408e-06 1.2354e-05
3.30026e-07 -1.27704e-05 1.40343e-05
-1.91552e-06 -1.11512e-05 1.33775e-05
-1.84114e-06 -7.92195e-06 1.15826e-05
-4.16808e-06 -9.87527e-06 1.30855e-05
-3.8141e-06 -6.73078e-06 1.13175e-05
-6.34589e-06 -8.66239e-06 1.30998e-05
-5.89155e-06 -5.69825e-06 1.16288e-05
-8.50009e-06 -7.43612e-06 1.33802e-05
-8.16789e-06 -4.72826e-06 1.24091e-05
-1.10961e-05 -6.40305e-06 1.40704e-05
-4.37185e-06 -1.31238e-05 1.44342e-05
-1.08093e-05 -3.65084e-06 1.34397e-05
7.22644e-06 -1.13733e-05 1.42735e-05
-7.74203e-06 1.98277e-06 1.14933e-05
-1.32167e-05 1.0351e-06 1.42115e-05
1.7292e-06 1.50835e-05 1.49528e-05
1.37687e-05 4.62259e-07 1.43883e-05
1.38438e-05 6.10037e-06 1.49323e-05
-9.69449e-06 1.01967e-05 1.45331e-05
-5.41623e-06 -3.19779e-06 1.01825e-05
-1.17141e-05 -9.29775e-06 1.48898e-05
1.18829e-05 -8.7606e-06 1.47877e-05
1.47824e-05 -7.47394e-06 1.54039e-05
-1.39604e-05 -5.24413e-06 1.48622e-05
2.79594e-06 -1.45168e-05 1.47968e-05
4.24578e-07 -1.65002e-05 1.53983e-05
3.51858e-06 4.39712e-06 9.58152e-06
1.40112e-05 9.29947e-06 1.54922e-05
1.79316e-05 8.14533e-06 1.63012e-05
-1.56762e-05 1.13958e-05 1.62341e-05
-1.09414e-06 1.67698e-05 1.54959e-05
1.90694e-06 1.96225e-05 1.63116e-05
-2.09196e-06 5.22029e-06 9.59802e-06
5.55417e-06 -7.84636e-07 9.59457e-06
3.5861e-06 -3.68371e-06 9.08238e-06
-1.77971e-06 -5.17879e-06 9.45002e-06
-2.24697e-05 -1.10113e-05 1.74749e-05
-1.8799e-05 -9.24183e-06 1.66516e-05
2.11487e-05 1.41653e-05 1.75062e-05
2.07546e-05 -1.43182e-05 1.74361e-05
-1.76465e-06 -2.54476e-05 1.75115e-05
-1.68218e-06 2.54116e-05 1.75161e-05
1.77138e-05 -1.19074e-05 1.66878e-05
2.06466e-05 -1.07515e-05 1.71166e-05
3.7758e-06 -1.8986e-05 1.614e-05
7.68557e-07 -2.03467e-05 1.64835e-05
-1.94059e-05 -1.26511e-05 1.71437e-05
-1.37317e-05 -2.30703e-06 1.44725e-05
-1.65935e-05 -3.7016e-06 1.54782e-05
-1.03763e-05 -1.09643e-06 1.29526e-05
2.4453e-05 1.10733e-05 1.76522e-05
2.54985e-05 -1.24038e-05 1.78487e-05
2.6493e-06 2.67271e-05 1.7661e-05
2.52105e-06 -2.64147e-05 1.76299e-05
3.33958e-06 -2.30329e-05 1.70297e-05
-2.05398e-06 -1.83207e-05 1.59515e-05
4.05919e-06 2.37924e-05 1.7131e-05
2.26151e-05 8.37964e-06 1.71198e-05
4.6138e-06 1.73141e-05 1.57279e-05
1.44276e-05 -1.312e-05 1.6138e-05
-1.57884e-05 -1.09852e-05 1.62151e-05
-1.68005e-05 -3.81446e-07 1.5378e-05
1.73067e-05 4.68769e-06 1.57263e-05
6.55239e-08 -6.38757e-06 1.02679e-05
1.74178e-06 -4.84865e-06 9.09288e-06
5.8507e-06 -2.93563e-06 1.03786e-05
-2.14451e-05 3.75069e-06 1.64594e-05
5.72961e-06 -1.62752e-05 1.55083e-05
9.08385e-06 -1.74998e-05 1.59981e-05
1.75729e-05 1.18822e-05 1.66729e-05
1.39948e-05 -1.63829e-05 1.64018e-05
1.07404e-05 -1.37896e-05 1.55507e-05
-3.54811e-06 -4.22036e-06 9.50117e-06
5.39933e-06 1.13854e-06 9.49946e-06
5.21825e-06 3.223e-06 1.00477e-05
-1.74981e-06 -2.83556e-05 1.78774e-05
1.89213e-06 5.2991e-06 9.58486e-06
-1.13828e-07 6.10524e-06 1.00392e-05
-3.78507e-06 4.1279e-06 9.57882e-06
-5.6229e-06 3.0343e-06 1.02857e-05
-5.16567e-06 1.04071e-06 9.214e-06
-7.52754e-06 -6.17417e-08 1.11729e-05
-4.33453e-06 -8.10307e-07 8.38221e-06
-3.1087e-06 1.8724e-06 7.37438e-06
-2.20821e-05 -3.60793e-06 1.65164e-05
2.34071e-05 -1.56885e-05 1.78366e-05
-1.50725e-06 2.11688e-05 1.66826e-05
2.12625e-05 -8.45237e-08 1.62264e-05
1.76228e-05 -1.64687e-06 1.5582e-05
1.73484e-05 -4.94189e-06 1.57713e-05
2.18924e-05 -7.45144e-06 1.69142e-05
-2.31831e-05 -1.42551e-05 1.78332e-05
1.73254e-05 1.64894e-06 1.55091e-05
-1.73402e-06 2.84741e-05 1.78946e-05
-4.22087e-07 3.68355e-06 7.49562e-06
2.37728e-05 1.57429e-05 1.78851e-05
-1.74981e-05 1.56428e-05 1.69755e-05
-1.06267e-05 -1.84669e-05 1.62557e-05
-1.01e-05 -1.43429e-05 1.55723e-05
-7.50809e-06 -1.60955e-05 1.56226e-05
-7.32242e-06 -2.01214e-05 1.63959e-05
-1.07049e-05 1.8536e-05 1.62674e-05
-1.03478e-05 1.43847e-05 1.56199e-05
-7.77295e-06 2.04933e-05 1.64448e-05
-4.25316e-06 1.86105e-05 1.60536e-05
1.07602e-05 1.83462e-05 1.62268e-05
1.38923e-05 1.69356e-05 1.64316e-05
1.40425e-05 1.29734e-05 1.60519e-05
-7.36189e-06 1.6289e-05 1.56391e-05
1.05256e-05 1.45476e-05 1.56458e-05
7.74908e-06 1.6093e-05 1.56145e-05
-3.11658e-06 -1.89883e-06 7.3935e-06
-7.25796e-06 -1.24225e-05 1.46258e-05
3.00877e-06 4.03616e-08 6.60126e-06
4.87278e-06 1.35233e-05 1.46187e-05
1.40766e-05 -2.26049e-06 1.45711e-05
-1.72905e-05 -1.52173e-05 1.69461e-05
-1.73672e-05 2.42041e-06 1.55984e-05
-1.22052e-05 8.91232e-06 1.49441e-05
-7.70595e-06 -2.29261e-06 1.15552e-05
-1.24503e-05 1.18131e-05 1.55406e-05
-1.42741e-07 -3.75436e-06 7.55451e-06
2.73033e-06 2.27216e-06 7.25225e-06
-2.00395e-06 -1.46511e-05 1.48087e-05
9.3655e-06 -1.00687e-05 1.439e-05
1.38613e-05 3.15795e-06 1.45667e-05
-7.34036e-06 1.11999e-05 1.42609e-05
4.99744e-06 -1.27754e-05 1.43699e-05
1.10323e-05 1.0431e-05 1.49203e-05
-3.5966e-06 1.46859e-05 1.49086e-05
-4.63567e-06 -1.66176e-05 1.55495e-05
-1.95079e-05 1.2893e-05 1.71619e-05
-2.31278e-05 1.48587e-05 1.7844e-05
-1.29055e-05 -1.26866e-05 1.58132e-05
3.76094e-06 -1.58618e-06 7.90731e-06
1.76446e-06 2.92239e-06 7.08475e-06
-9.23089e-06 -1.06099e-05 1.45324e-05
1.72781e-06 -2.82326e-06 6.93138e-06
9.94757e-07 2.41179e-05 1.73091e-05
2.13688e-05 1.11943e-05 1.72992e-05
-1.46653e-05 -7.95374e-06 1.5486e-05
1.37087e-05 -4.78654e-06 1.46913e-05
-1.90996e-06 -2.17639e-05 1.68033e-05
1.80612e-05 -8.41944e-06 1.63413e-05
-1.66797e-05 -6.32886e-06 1.57831e-05
-4.32916e-07 -1.92239e-06 4.79869e-06
-1.80544e-06 2.99555e-06 7.1775e-06
-2.5053e-05 -1.29823e-05 1.79228e-05
-2.51282e-05 -1.45078e-05 1.80026e-05
-2.50461e-05 1.30342e-05 1.79066e-05
-2.5119e-05 1.46505e-05 1.79827e-05
-1.64852e-06 -3.12497e-06 7.21024e-06
6.32824e-06 1.13689e-05 1.40772e-05
5.33723e-07 -2.40871e-05 1.73028e-05
-5.22796e-07 1.80961e-06 4.64522e-06
7.4078e-06 -1.43443e-05 1.5153e-05
2.33038e-05 -1.32099e-05 1.77294e-05
2.36337e-05 -1.0538e-05 1.74914e-05
1.1989e-05 -1.82118e-05 1.6294e-05
1.47308e-05 -1.01471e-05 1.57962e-05
-1.00275e-05 1.00129e-06 1.27552e-05
-1.74007e-06 -8.15931e-07 4.72367e-06
7.69094e-07 3.7085e-06 7.5735e-06
2.34316e-06 -1.99724e-06 6.55559e-06
2.01574e-05 5.89811e-06 1.64543e-05
5.07029e-06 2.05969e-05 1.64967e-05
3.4212e-07 -2.76811e-05 1.78546e-05
-1.73129e-06 7.09136e-07 4.60653e-06
-3.21163e-06 6.23071e-07 6.82446e-06
3.57736e-06 1.47547e-06 7.63698e-06
4.99229e-07 2.83249e-05 1.79278e-05
2.47613e-05 1.37346e-05 1.7919e-05
-2.03293e-05 1.55364e-05 1.74296e-05
1.17875e-06 1.36452e-06 4.46006e-06
-2.06405e-05 -1.5729e-05 1.75282e-05
-1.89998e-05 -2.3223e-06 1.59468e-05
-1.95601e-05 -5.58526e-06 1.63329e-05
9.05717e-07 -3.24788e-06 7.00643e-06
-4.36621e-06 -1.97902e-05 1.63225e-05
-7.93766e-06 1.38351e-05 1.51018e-05
1.16579e-06 -1.30423e-06 4.33949e-06
1.1935e-05 -1.12289e-05 1.52928e-05
6.1333e-06 -2.26971e-05 1.68211e-05
-1.45228e-05 1.4356e-05 1.63243e-05
7.92945e-06 1.33219e-05 1.49487e-05
1.79374e-06 8.58774e-07 -4.55244e-06
1.73787e-06 -8.25141e-07 -4.46099e-06
4.31967e-07 1.84968e-06 -4.49531e-06
4.36112e-07 -1.78069e-06 -4.35627e-06
-1.84755e-06 2.0964e-08 -4.42255e-06
-1.12312e-06 -1.30891e-06 -4.15118e-06
-1.15924e-06 1.30684e-06 -4.19996e-06
-2.2514e-05 -7.28801e-06 -1.70005e-05
-2.21973e-05 7.37191e-06 -1.69692e-05
-4.86061e-06 2.28995e-05 -1.69376e-05
-4.85812e-06 -2.31326e-05 -1.69645e-05
1.7422e-05 1.56361e-05 -1.69304e-05
1.75695e-05 -1.55371e-05 -1.69397e-05
2.10744e-05 3.16404e-06 -1.6325e-05
-1.39537e-05 1.7152e-05 -1.6479e-05
-1.35918e-05 -1.6742e-05 -1.64105e-05
7.76816e-06 1.98204e-05 -1.63318e-05
7.68517e-06 -2.03108e-05 -1.64031e-05
2.14732e-05 -3.4439e-06 -1.64008e-05
-2.11036e-05 6.58813e-09 -1.62473e-05
-2.24212e-05 1.10002e-05 -1.74541e-05
-1.87517e-05 9.25508e-06 -1.66276e-05
-1.79835e-05 5.7957e-06 -1.60369e-05
-1.49846e-05 7.44865e-06 -1.54869e-05
-1.42251e-05 4.3079e-06 -1.48302e-05
-1.15331e-05 5.74413e-06 -1.40952e-05
-1.08585e-05 3.06886e-06 -1.3374e-05
-8.40083e-06 4.30505e-06 -1.24048e-05
-9.05918e-06 7.0137e-06 -1.34568e-05
-6.20436e-06 5.48873e-06 -1.16894e-05
-6.82859e-06 8.24979e-06 -1.30804e-05
-4.28157e-06 6.67518e-06 -1.14509e-05
-4.80021e-06 9.61033e-06 -1.30943e-05
-2.40097e-06 7.99367e-06 -1.17234e-05
-2.81297e-06 1.11677e-05 -1.34754e-05
-4.75431e-07 9.59569e-06 -1.25014e-05
-7.38387e-07 1.29975e-05 -1.41422e-05
1.73115e-06 1.15183e-05 -1.35354e-05
-5.53493e-06 1.27009e-05 -1.44374e-05
1.68515e-06 8.22431e-06 -1.1748e-05
4.00435e-06 1.01213e-05 -1.31514e-05
3.7055e-06 7.09824e-06 -1.14786e-05
6.06766e-06 8.96705e-06 -1.31138e-05
5.76706e-06 6.10704e-06 -1.1736e-05
8.35844e-06 8.02066e-06 -1.34925e-05
8.10599e-06 5.19548e-06 -1.25008e-05
1.09545e-05 7.09735e-06 -1.41474e-05
1.07464e-05 4.32298e-06 -1.34995e-05
8.53089e-06 1.1038e-05 -1.44613e-05
7.93802e-06 2.64385e-06 -1.17278e-05
1.06465e-05 1.73727e-06 -1.31045e-05
7.94901e-06 3.58775e-07 -1.1456e-05
1.08069e-05 -7.59145e-07 -1.31246e-05
8.11198e-06 -1.93788e-06 -1.17095e-05
1.10987e-05 -3.31299e-06 -1.34844e-05
8.47009e-06 -4.42417e-06 -1.24445e-05
1.15042e-05 -6.00314e-06 -1.41099e-05
8.95595e-06 -7.13841e-06 -1.34285e-05
6.14778e-06 -5.49464e-06 -1.16417e-05
6.64478e-06 -8.30122e-06 -1.30187e-05
4.10537e-06 -6.58878e-06 -1.13113e-05
4.52355e-06 -9.55128e-06 -1.29887e-05
2.24239e-06 -7.85861e-06 -1.15978e-05
2.48494e-06 -1.10024e-05 -1.33514e-05
2.25299e-07 -9.37408e-06 -1.2354e-05
3.30026e-07 -1.27704e-05 -1.40343e-05
-1.91552e-06 -1.11512e-05 -1.33775e-05
-1.84114e-06 -7.92195e-06 -1.15826e-05
-4.16808e-06 -9.87527e-06 -1.30855e-05
-3.8141e-06 -6.73078e-06 -1.13175e-05
-6.34589e-06 -8.66239e-06 -1.30998e-05
-5.89155e-06 -5.69825e-06 -1.16288e-05
-8.50009e-06 -7.43612e-06 -1.33802e-05
-8.16789e-06 -4.72826e-06 -1.24091e-05
-1.10961e-05 -6.40305e-06 -1.40704e-05
-4.37185e-06 -1.31238e-05 -1.44342e-05
-1.08093e-05 -3.65084e-06 -1.34397e-05
7.22644e-06 -1.13733e-05 -1.42735e-05
-7.74203e-06 1.98277e-06 -1.14933e-05
-1.32167e-05 1.0351e-06 -1.42115e-05
1.7292e-06 1.50835e-05 -1.49528e-05
1.37687e-05 4.62259e-07 -1.43883e-05
1.38438e-05 6.10037e-06 -1.49323e-05
-9.69449e-06 1.01967e-05 -1.45331e-05
-5.41623e-06 -3.19779e-06 -1.01825e-05
-1.17141e-05 -9.29775e-06 -1.48898e-05
1.18829e-05 -8.7606e-06 -1.47877e-05
1.47824e-05 -7.47394e-06 -1.54039e-05
-1.39604e-05 -5.24413e-06 -1.48622e-05
2.79594e-06 -1.45168e-05 -1.47968e-05
4.24578e-07 -1.65002e-05 -1.53983e-05
3.51858e-06 4.39712e-06 -9.58152e-06
1.40112e-05 9.29947e-06 -1.54922e-05
1.79316e-05 8.14533e-06 -1.63012e-05
-1.56762e-05 1.13958e-05 -1.62341e-05
-1.09414e-06 1.67698e-05 -1.54959e-05
1.90694e-06 1.96225e-05 -1.63116e-05
-2.09196e-06 5.22029e-06 -9.59802e-06
5.55417e-06 -7.84636e-07 -9.59457e-06
3.5861e-06 -3.68371e-06 -9.08238e-06
-1.77971e-06 -5.17879e-06 -9.45002e-06
-2.24697e-05 -1.10113e-05 -1.74749e-05
-1.8799e-05 -9.24183e-06 -1.66516e-05
2.11487e-05 1.41653e-05 -1.75062e-05
2.07546e-05 -1.43182e-05 -1.74361e-05
-1.76465e-06 -2.54476e-05 -1.75115e-05
-1.68218e-06 2.54116e-05 -1.75161e-05
1.77138e-05 -1.19074e-05 -1.66878e-05
2.06466e-05 -1.07515e-05 -1.71166e-05
3.7758e-06 -1.8986e-05 -1.614e-05
7.68557e-07 -2.03467e-05 -1.64835e-05
-1.94059e-05 -1.26511e-05 -1.71437e-05
-1.37317e-05 -2.30703e-06 -1.44725e-05
-1.65935e-05 -3.7016e-06 -1.54782e-05
-1.03763e-05 -1.09643e-06 -1.29526e-05
2.4453e-05 1.10733e-05 -1.76522e-05
2.54985e-05 -1.24038e-05 -1.78487e-05
2.6493e-06 2.67271e-05 -1.7661e-05
2.52105e-06 -2.64147e-05 -1.76299e-05
3.33958e-06 -2.30329e-05 -1.70297e-05
-2.05398e-06 -1.83207e-05 -1.59515e-05
4.05919e-06 2.37924e-05 -1.7131e-05
2.26151e-05 8.37964e-06 -1.71198e-05
4.6138e-06 1.73141e-05 -1.57279e-05
1.44276e-05 -1.312e-05 -1.6138e-05
-1.57884e-05 -1.09852e-05 -1.62151e-05
-1.68005e-05 -3.81446e-07 -1.5378e-05
1.73067e-05 4.68769e-06 -1.57263e-05
6.55239e-08 -6.38757e-06 -1.02679e-05
1.74178e-06 -4.84865e-06 -9.09288e-06
5.8507e-06 -2.93563e-06 -1.03786e-05
-2.14451e-05 3.75069e-06 -1.64594e-05
5.72961e-06 -1.62752e-05 -1.55083e-05
9.08385e-06 -1.74998e-05 -1.59981e-05
1.75729e-05 1.18822e-05 -1.66729e-05
1.39948e-05 -1.63829e-05 -1.64018e-05
1.07404e-05 -1.37896e-05 -1.55507e-05
-3.54811e-06 -4.22036e-06 -9.50117e-06
5.39933e-06 1.13854e-06 -9.49946e-06
5.21825e-06 3.223e-06 -1.00477e-05
-1.74981e-06 -2.83556e-05 -1.78774e-05
1.89213e-06 5.2991e-06 -9.58486e-06
-1.13828e-07 6.10524e-06 -1.00392e-05
-3.78507e-06 4.1279e-06 -9.57882e-06
-5.6229e-06 3.0343e-06 -1.02857e-05
-5.16567e-06 1.04071e-06 -9.214e-06
-7.52754e-06 -6.17417e-08 -1.11729e-05
-4.33453e-06 -8.10307e-07 -8.38221e-06
-3.1087e-06 1.8724e-06 -7.37438e-06
-2.20821e-05 -3.60793e-06 -1.65164e-05
2.34071e-05 -1.56885e-05 -1.78366e-05
-1.50725e-06 2.11688e-05 -1.66826e-05
2.12625e-05 -8.45237e-08 -1.62264e-05
1.76228e-05 -1.64687e-06 -1.5582e-05
1.73484e-05 -4.94189e-06 -1.57713e-05
2.18924e-05 -7.45144e-06 -1.69142e-05
-2.31831e-05 -1.42551e-05 -1.78332e-05
1.73254e-05 1.64894e-06 -1.55091e-05
-1.73402e-06 2.84741e-05 -1.78946e-05
-4.22087e-07 3.68355e-06 -7.49562e-06