# vtk DataFile Version 3.0
vtk output at time 160
ASCII
DATASET UNSTRUCTURED_GRID
POINTS 626 float
-3.68058e-05 0.000978749 0 3.68058e-05 0.000978749 0 -0.000829194 0.00052125 0 
-0.0008235 0.0005 0 -0.000866 0.0004575 0 -0.000866 -0.0004575 0 
-0.0008235 -0.0005 0 -0.000829194 -0.00052125 0 -3.68058e-05 -0.000978749 0 
3.68058e-05 -0.000978749 0 0.000829194 -0.00052125 0 0.000866 -0.0004575 0 
0.000866 0.0004575 0 0.000829194 0.00052125 0 8.5e-05 0 0 
-3.68058e-05 0.000978749 -0.001 3.68058e-05 0.000978749 -0.001 -0.000829194 0.00052125 -0.001 
-0.0008235 0.0005 -0.001 -0.000866 0.0004575 -0.001 -0.000866 -0.0004575 -0.001 
-0.0008235 -0.0005 -0.001 -0.000829194 -0.00052125 -0.001 -3.68058e-05 -0.000978749 -0.001 
3.68058e-05 -0.000978749 -0.001 0.000829194 -0.00052125 -0.001 0.000866 -0.0004575 -0.001 
0.000866 0.0004575 -0.001 0.000829194 0.00052125 -0.001 8.5e-05 0 -0.001 
8.46223e-17 0.0009575 0 -0.000715996 0.000586607 0 -0.000602797 0.000651965 0 
-0.000489599 0.000717321 0 -0.000376401 0.000782678 0 -0.000263202 0.000848036 0 
-0.000150004 0.000913393 0 -0.000835948 0.000469948 0 -0.000866 -0.000326786 0 
-0.000866 -0.000196071 0 -0.000866 -6.53571e-05 0 -0.000866 6.53571e-05 0 
-0.000866 0.000196071 0 -0.000866 0.000326786 0 -0.000835948 -0.000469948 0 
-0.000150004 -0.000913393 0 -0.000263202 -0.000848036 0 -0.000376401 -0.000782678 0 
-0.000489599 -0.000717321 0 -0.000602797 -0.000651965 0 -0.000715996 -0.000586607 0 
8.47648e-17 -0.0009575 0 0.000715996 -0.000586607 0 0.000602797 -0.000651965 0 
0.000489599 -0.000717321 0 0.000376401 -0.000782678 0 0.000263202 -0.000848036 0 
0.000150004 -0.000913393 0 0.000829194 -0.00047875 0 0.000866 0.000326786 0 
0.000866 0.000196071 0 0.000866 6.53571e-05 0 0.000866 -6.53571e-05 0 
0.000866 -0.000196071 0 0.000866 -0.000326786 0 0.000829194 0.00047875 0 
0.000150004 0.000913393 0 0.000263202 0.000848036 0 0.000376401 0.000782678 0 
0.000489599 0.000717321 0 0.000602797 0.000651965 0 0.000715996 0.000586607 0 
5.29966e-05 6.64557e-05 0 -1.89143e-05 8.28689e-05 0 -7.65824e-05 3.68801e-05 0 
-7.65824e-05 -3.68801e-05 0 -1.89143e-05 -8.28689e-05 0 5.29966e-05 -6.64557e-05 0 
8.46223e-17 0.0009575 -0.001 -0.000715996 0.000586607 -0.001 -0.000602797 0.000651965 -0.001 
-0.000489599 0.000717321 -0.001 -0.000376401 0.000782678 -0.001 -0.000263202 0.000848036 -0.001 
-0.000150004 0.000913393 -0.001 -0.000835948 0.000469948 -0.001 -0.000866 -0.000326786 -0.001 
-0.000866 -0.000196071 -0.001 -0.000866 -6.53571e-05 -0.001 -0.000866 6.53571e-05 -0.001 
-0.000866 0.000196071 -0.001 -0.000866 0.000326786 -0.001 -0.000835948 -0.000469948 -0.001 
-0.000150004 -0.000913393 -0.001 -0.000263202 -0.000848036 -0.001 -0.000376401 -0.000782678 -0.001 
-0.000489599 -0.000717321 -0.001 -0.000602797 -0.000651965 -0.001 -0.000715996 -0.000586607 -0.001 
8.47648e-17 -0.0009575 -0.001 0.000715996 -0.000586607 -0.001 0.000602797 -0.000651965 -0.001 
0.000489599 -0.000717321 -0.001 0.000376401 -0.000782678 -0.001 0.000263202 -0.000848036 -0.001 
0.000150004 -0.000913393 -0.001 0.000829194 -0.00047875 -0.001 0.000866 0.000326786 -0.001 
0.000866 0.000196071 -0.001 0.000866 6.53571e-05 -0.001 0.000866 -6.53571e-05 -0.001 
0.000866 -0.000196071 -0.001 0.000866 -0.000326786 -0.001 0.000829194 0.00047875 -0.001 
0.000150004 0.000913393 -0.001 0.000263202 0.000848036 -0.001 0.000376401 0.000782678 -0.001 
0.000489599 0.000717321 -0.001 0.000602797 0.000651965 -0.001 0.000715996 0.000586607 -0.001 
5.29966e-05 6.64557e-05 -0.001 -1.89143e-05 8.28689e-05 -0.001 -7.65824e-05 3.68801e-05 -0.001 
-7.65824e-05 -3.68801e-05 -0.001 -1.89143e-05 -8.28689e-05 -0.001 5.29966e-05 -6.64557e-05 -0.001 
0.000131234 6.38474e-05 0 0.00012964 -6.2443e-05 0 3.13827e-05 0.0001394 0 
3.12554e-05 -0.000136939 0 -0.000140461 8.25467e-19 0 -8.90565e-05 -0.000102707 0 
-9.04142e-05 0.000102872 0 -0.000765769 -0.00025965 0 -0.000756873 0.000262774 0 
-0.00015609 0.000787505 0 -0.000155807 -0.00079355 0 0.000605069 0.000528035 0 
0.000608694 -0.00052497 0 0.000744069 0.000116929 0 -0.000494418 0.000596218 0 
-0.000483866 -0.000584648 0 0.000269496 0.000702219 0 0.000263201 -0.000717324 0 
0.000754429 -0.000127825 0 -0.000748858 5.84659e-07 0 -0.000747838 0.000373886 0 
-0.0006542 0.000324842 0 -0.000645137 0.000210123 0 -0.000550884 0.000274171 0 
-0.000538857 0.000163195 0 -0.00045062 0.000224461 0 -0.000438393 0.000123907 0 
-0.000354088 0.000181668 0 -0.000363908 0.000282171 0 -0.000270361 0.000239477 0 
-0.000279138 0.000337653 0 -0.000188888 0.000294791 0 -0.000196448 0.000393271 0 
-0.000104767 0.000348259 0 -0.000113332 0.000449012 0 -2.01066e-05 0.000403223 0 
-2.89189e-05 0.000507105 0 6.9524e-05 0.000461596 0 -0.000213644 0.000490203 0 
7.33757e-05 0.000357726 0 0.000163331 0.00041299 0 0.000163359 0.000313022 0 
0.000248077 0.000366368 0 0.000250914 0.000265758 0 0.000335709 0.000322266 0 
0.000340555 0.000218148 0 0.000427299 0.000276717 0 0.000431508 0.000173093 0 
0.000328731 0.000425633 0 0.00034586 0.000114823 0 0.000435362 7.05241e-05 0 
0.000350892 1.5455e-05 0 0.000441547 -3.11896e-05 0 0.000353547 -8.47783e-05 0 
0.000445767 -0.000132964 0 0.000356135 -0.000186358 0 0.000449094 -0.000234674 0 
0.000359978 -0.000287876 0 0.00026856 -0.000240545 0 0.000271895 -0.000341045 0 
0.000181792 -0.00029305 0 0.00018533 -0.000392851 0 9.75701e-05 -0.00034483 0 
9.98764e-05 -0.000444884 0 8.75116e-06 -0.000396343 0 1.20916e-05 -0.000500496 0 
-7.83929e-05 -0.000449843 0 -8.1471e-05 -0.000347249 0 -0.000171566 -0.000403733 0 
-0.000169889 -0.000298891 0 -0.000259867 -0.000354132 0 -0.000257696 -0.000249137 0 
-0.00034313 -0.000299896 0 -0.000344514 -0.000199127 0 -0.000434309 -0.000250039 0 
-0.000169832 -0.000505815 0 -0.000435227 -0.000146227 0 0.000280331 -0.000442424 0 
-0.000340889 8.76793e-05 0 -0.000515252 4.06198e-05 0 6.50491e-05 0.000568253 0 
0.00053278 1.74743e-05 0 0.000522071 0.000229831 0 -0.00037162 0.000391659 0 
-0.000255272 -0.000150439 0 -0.000442893 -0.000350705 0 0.000450067 -0.000332559 0 
0.000545175 -0.000276306 0 -0.000527797 -0.000197598 0 0.000105306 -0.000551033 0 
1.45836e-05 -0.000609147 0 0.00017145 0.000214453 0 0.000515525 0.000341711 0 
0.000636086 0.000290368 0 -0.000558657 0.000404468 0 -4.01232e-05 0.000616718 0 
6.60192e-05 0.000696422 0 -0.000101806 0.0002546 0 0.000271142 -3.88908e-05 0 
0.000179455 -0.00018534 0 -8.79553e-05 -0.000254307 0 -0.000749267 -0.000373451 0 
-0.000655941 -0.000323397 0 0.000709746 0.000466718 0 0.000698426 -0.000473086 0 
-5.25801e-05 -0.00084886 0 -4.93005e-05 0.000848038 0 0.000617396 -0.000413362 0 
0.000702056 -0.000369817 0 0.000131459 -0.000679171 0 2.48171e-05 -0.000715924 0 
-0.000664217 -0.00042729 0 -0.000528828 -8.80444e-05 0 -0.000611101 -0.000136672 0 
-0.000426972 -4.45841e-05 0 0.000800669 0.000378216 0 0.000821144 -0.000415062 0 
7.2799e-05 0.00088254 0 6.81831e-05 -0.00087503 0 0.000104963 -0.000788946 0 
-7.40696e-05 -0.000660054 0 0.000126061 0.000809943 0 0.000764361 0.000295682 0 
0.000166862 0.000630623 0 0.000516462 -0.00046707 0 -0.000563585 -0.000389606 0 
-0.000622598 -1.40238e-05 0 0.000629891 0.000171529 0 2.5614e-06 -0.000299794 0 
8.6901e-05 -0.00024329 0 0.000272045 -0.000136982 0 -0.00075148 0.000138321 0 
0.000209366 -0.000599589 0 0.000324913 -0.000630055 0 0.000614044 0.00041245 0 
0.00049651 -0.000573327 0 0.000394822 -0.000507321 0 -0.000173714 -0.000206698 0 
0.000264897 5.63722e-05 0 0.000247997 0.000152811 0 -4.63327e-05 -0.000920208 0 
9.18688e-05 0.000258626 0 -5.54111e-06 0.000290558 0 -0.000184219 0.000201484 0 
-0.000263559 0.000142267 0 -0.000256427 5.13624e-05 0 -0.000336894 -2.06179e-06 0 
-0.000228499 -4.2388e-05 0 -0.00017589 0.000106626 0 -0.000769947 -0.000133367 0 
0.000767591 -0.000500293 0 -5.05874e-05 0.000737978 0 0.000754456 -3.51771e-06 0 
0.00064691 -6.15298e-05 0 0.000630483 -0.00018134 0 0.000749187 -0.000265543 0 
-0.000760805 -0.000462521 0 0.000638155 6.09315e-05 0 -4.46661e-05 0.000922995 0 
-2.37945e-05 0.000207237 0 0.000776979 0.000500181 0 -0.000605691 0.000527596 0 
-0.000377914 -0.000653727 0 -0.000372325 -0.000526022 0 -0.000275829 -0.000589621 0 
-0.000254285 -0.000710579 0 -0.000379307 0.000656222 0 -0.000379818 0.00052718 0 
-0.000266817 0.000721555 0 -0.000150544 0.000668174 0 0.000381963 0.00065079 0 
0.000493113 0.000590432 0 0.000505439 0.000463708 0 -0.000269094 0.000596608 0 
0.000385815 0.000532045 0 0.000283599 0.0005899 0 -0.000176405 -0.000108505 0 
-0.000278769 -0.000475415 0 0.000185395 2.33014e-06 0 0.000186773 0.000517571 0 
0.000540032 -8.68444e-05 0 -0.000600694 -0.000514877 0 -0.00063703 8.98033e-05 0 
-0.000459677 0.000335729 0 -0.000338836 -0.000100751 0 -0.000457327 0.000432721 0 
-8.72007e-06 -0.000210238 0 0.000156073 0.000129496 0 -7.70692e-05 -0.000555049 0 
0.00036091 -0.000389728 0 0.000531628 0.000120564 0 -0.000285451 0.000435562 0 
0.000192719 -0.000494604 0 0.00041642 0.00039368 0 -0.000135943 0.000554637 0 
-0.000170665 -0.000610079 0 -0.000666304 0.000434981 0 -0.000758736 0.000479231 0 
-0.000470189 -0.000458901 0 0.000203433 -8.59809e-05 0 0.000101846 0.000170114 0 
-0.00035513 -0.00040726 0 0.000100184 -0.000165831 0 2.96286e-05 0.00081537 0 
0.000720946 0.000381836 0 -0.000539809 -0.000292001 0 0.00052211 -0.000182426 0 
-6.41339e-05 -0.000753908 0 0.000638039 -0.000299861 0 -0.000605136 -0.000230182 0 
-3.41638e-05 -0.000145561 0 -0.000104037 0.000172396 0 -0.000808575 -0.00042774 0 
-0.000807207 -0.000465052 0 -0.00080817 0.000429771 0 -0.000806589 0.000469738 0 
-9.50634e-05 -0.000178909 0 0.000247777 0.000445058 0 1.48293e-05 -0.000814201 0 
-4.11555e-05 0.000140955 0 0.000276104 -0.000536845 0 0.000765969 -0.000436638 0 
0.000780871 -0.000362769 0 0.000424176 -0.000642018 0 0.00053413 -0.000368009 0 
-0.000416333 4.17911e-05 0 -0.000133891 -6.23822e-05 0 4.2574e-05 0.000206312 0 
[...]
POINT_DATA 626
VECTORS displacement float
-1.74394e-06 3.09554e-05 1.80554e-05
1.73565e-06 3.09744e-05 1.81005e-05
-2.59871e-05 1.69933e-05 1.80875e-05
-2.58417e-05 1.60335e-05 1.80521e-05
-2.77215e-05 1.39733e-05 1.80695e-05
-2.77144e-05 -1.40196e-05 1.80949e-05
-2.58129e-05 -1.60716e-05 1.81063e-05
-2.59833e-05 -1.70114e-05 1.81675e-05
-1.6774e-06 -3.09591e-05 1.80518e-05
1.75545e-06 -3.09606e-05 1.81023e-05
2.59444e-05 -1.69812e-05 1.80439e-05
2.77178e-05 -1.39372e-05 1.80438e-05
2.76733e-05 1.39899e-05 1.80921e-05
2.59158e-05 1.69934e-05 1.80465e-05
0 0 0
-1.74394e-06 3.09554e-05 -1.80554e-05
1.73565e-06 3.09744e-05 -1.81005e-05
-2.59871e-05 1.69933e-05 -1.80875e-05
-2.58417e-05 1.60335e-05 -1.80521e-05
-2.77215e-05 1.39733e-05 -1.80695e-05
-2.77144e-05 -1.40196e-05 -1.80949e-05
-2.58129e-05 -1.60716e-05 -1.81063e-05
-2.59833e-05 -1.70114e-05 -1.81675e-05
-1.6774e-06 -3.09591e-05 -1.80518e-05
1.75545e-06 -3.09606e-05 -1.81023e-05
2.59444e-05 -1.69812e-05 -1.80439e-05
2.77178e-05 -1.39372e-05 -1.80438e-05
2.76733e-05 1.39899e-05 -1.80921e-05
2.59158e-05 1.69934e-05 -1.80465e-05
0 0 0
2.48904e-08 3.01553e-05 1.80346e-05
-2.11414e-05 1.87129e-05 1.75502e-05
-1.72332e-05 1.98345e-05 1.69213e-05
-1.40075e-05 2.1055e-05 1.65555e-05
-1.12073e-05 2.26657e-05 1.65493e-05
-8.52432e-06 2.48338e-05 1.69018e-05
-5.56789e-06 2.76227e-05 1.75379e-05
-2.64506e-05 1.46796e-05 1.80339e-05
-2.67696e-05 -9.01192e-06 1.75779e-05
-2.58071e-05 -5.03572e-06 1.69265e-05
-2.52554e-05 -1.63629e-06 1.65719e-05
-2.52584e-05 1.60793e-06 1.65749e-05
-2.57994e-05 5.02312e-06 1.69247e-05
-2.67558e-05 8.985e-06 1.75644e-05
-2.64375e-05 -1.47259e-05 1.80627e-05
-5.54115e-06 -2.76371e-05 1.75301e-05
-8.47684e-06 -2.48428e-05 1.69012e-05
-1.11705e-05 -2.26851e-05 1.65567e-05
-1.39711e-05 -2.1088e-05 1.65601e-05
-1.72156e-05 -1.98698e-05 1.69371e-05
-2.1135e-05 -1.87497e-05 1.75627e-05
8.98346e-08 -3.014e-05 1.80298e-05
2.11248e-05 -1.86254e-05 1.75119e-05
1.72454e-05 -1.97629e-05 1.68733e-05
1.40344e-05 -2.1012e-05 1.65121e-05
1.12255e-05 -2.25938e-05 1.65467e-05
8.58148e-06 -2.4781e-05 1.68747e-05
5.65476e-06 -2.76274e-05 1.75354e-05
2.61253e-05 -1.50601e-05 1.80288e-05
2.67177e-05 8.9388e-06 1.7502e-05
2.5723e-05 5.04984e-06 1.69089e-05
2.52075e-05 1.62341e-06 1.65237e-05
2.52046e-05 -1.59952e-06 1.6522e-05
2.57516e-05 -4.99763e-06 1.68888e-05
2.66997e-05 -8.91755e-06 1.75101e-05
2.61084e-05 1.50613e-05 1.80258e-05
5.63322e-06 2.76187e-05 1.751e-05
8.50885e-06 2.48077e-05 1.69117e-05
1.12175e-05 2.26419e-05 1.65299e-05
1.4005e-05 2.10229e-05 1.65253e-05
1.72224e-05 1.97941e-05 1.68856e-05
2.11157e-05 1.8635e-05 1.75258e-05
0 0 0
0 0 0
0 0 0
0 0 0
0 0 0
0 0 0
2.48904e-08 3.01553e-05 -1.80346e-05
-2.11414e-05 1.87129e-05 -1.75502e-05
-1.72332e-05 1.98345e-05 -1.69213e-05
-1.40075e-05 2.1055e-05 -1.65555e-05
-1.12073e-05 2.26657e-05 -1.65493e-05
-8.52432e-06 2.48338e-05 -1.69018e-05
-5.56789e-06 2.76227e-05 -1.75379e-05
-2.64506e-05 1.46796e-05 -1.80339e-05
-2.67696e-05 -9.01192e-06 -1.75779e-05
-2.58071e-05 -5.03572e-06 -1.69265e-05
-2.52554e-05 -1.63629e-06 -1.65719e-05
-2.52584e-05 1.60793e-06 -1.65749e-05
-2.57994e-05 5.02312e-06 -1.69247e-05
-2.67558e-05 8.985e-06 -1.75644e-05
-2.64375e-05 -1.47259e-05 -1.80627e-05
-5.54115e-06 -2.76371e-05 -1.75301e-05
-8.47684e-06 -2.48428e-05 -1.69012e-05
-1.11705e-05 -2.26851e-05 -1.65567e-05
-1.39711e-05 -2.1088e-05 -1.65601e-05
-1.72156e-05 -1.98698e-05 -1.69371e-05
-2.1135e-05 -1.87497e-05 -1.75627e-05
8.98346e-08 -3.014e-05 -1.80298e-05
2.11248e-05 -1.86254e-05 -1.75119e-05
1.72454e-05 -1.97629e-05 -1.68733e-05
1.40344e-05 -2.1012e-05 -1.65121e-05
1.12255e-05 -2.25938e-05 -1.65467e-05
8.58148e-06 -2.4781e-05 -1.68747e-05
5.65476e-06 -2.76274e-05 -1.75354e-05
2.61253e-05 -1.50601e-05 -1.80288e-05
2.67177e-05 8.9388e-06 -1.7502e-05
2.5723e-05 5.04984e-06 -1.69089e-05
2.52075e-05 1.62341e-06 -1.65237e-05
2.52046e-05 -1.59952e-06 -1.6522e-05
2.57516e-05 -4.99763e-06 -1.68888e-05
2.66997e-05 -8.91755e-06 -1.75101e-05
2.61084e-05 1.50613e-05 -1.80258e-05
5.63322e-06 2.76187e-05 -1.751e-05
8.50885e-06 2.48077e-05 -1.69117e-05
1.12175e-05 2.26419e-05 -1.65299e-05
1.4005e-05 2.10229e-05 -1.65253e-05
1.72224e-05 1.97941e-05 -1.68856e-05
2.11157e-05 1.8635e-05 -1.75258e-05
0 0 0
0 0 0
0 0 0
0 0 0
0 0 0
0 0 0
1.79373e-06 8.58769e-07 4.55241e-06
1.73786e-06 -8.25136e-07 4.46096e-06
4.31965e-07 1.84967e-06 4.49527e-06
4.36109e-07 -1.78068e-06 4.35624e-06
-1.84753e-06 2.09638e-08 4.42252e-06
-1.12312e-06 -1.30891e-06 4.15114e-06
-1.15924e-06 1.30683e-06 4.19993e-06
-2.25138e-05 -7.28795e-06 1.70004e-05
-2.21971e-05 7.37185e-06 1.69691e-05
-4.86058e-06 2.28993e-05 1.69375e-05
-4.85809e-06 -2.31324e-05 1.69644e-05
1.74218e-05 1.5636e-05 1.69303e-05
1.75694e-05 -1.55369e-05 1.69396e-05
2.10743e-05 3.16401e-06 1.63249e-05
-1.39536e-05 1.71518e-05 1.64789e-05
-1.35917e-05 -1.67418e-05 1.64104e-05
7.76811e-06 1.98202e-05 1.63317e-05
7.68512e-06 -2.03107e-05 1.6403e-05
2.14731e-05 -3.44387e-06 1.64006e-05
-2.11035e-05 6.58812e-09 1.62471e-05
-2.24211e-05 1.10001e-05 1.7454e-05
-1.87515e-05 9.25501e-06 1.66275e-05
-1.79834e-05 5.79566e-06 1.60368e-05
-1.49845e-05 7.44859e-06 1.54868e-05
-1.42249e-05 4.30787e-06 1.48301e-05
-1.1533e-05 5.74408e-06 1.40951e-05
-1.08584e-05 3.06884e-06 1.33739e-05
-8.40077e-06 4.30502e-06 1.24047e-05
-9.05912e-06 7.01365e-06 1.34567e-05
-6.20431e-06 5.48869e-06 1.16893e-05
-6.82854e-06 8.24973e-06 1.30803e-05
-4.28154e-06 6.67513e-06 1.14508e-05
-4.80018e-06 9.61026e-06 1.30942e-05
-2.40095e-06 7.99361e-06 1.17233e-05
-2.81295e-06 1.11676e-05 1.34753e-05
-4.75427e-07 9.59562e-06 1.25013e-05
-7.38381e-07 1.29974e-05 1.41421e-05
1.73114e-06 1.15182e-05 1.35353e-05
-5.53488e-06 1.27008e-05 1.44373e-05
1.68514e-06 8.22425e-06 1.17479e-05
4.00432e-06 1.01212e-05 1.31513e-05
3.70547e-06 7.09819e-06 1.14785e-05
6.06761e-06 8.96698e-06 1.31137e-05
5.76701e-06 6.107e-06 1.17359e-05
8.35837e-06 8.0206e-06 1.34924e-05
8.10593e-06 5.19544e-06 1.25007e-05
1.09544e-05 7.0973e-06 1.41473e-05
1.07463e-05 4.32295e-06 1.34994e-05
8.53083e-06 1.10379e-05 1.44611e-05
7.93796e-06 2.64383e-06 1.17277e-05
1.06464e-05 1.73726e-06 1.31044e-05
7.94895e-06 3.58772e-07 1.14559e-05
1.08068e-05 -7.59139e-07 1.31245e-05
8.11192e-06 -1.93787e-06 1.17094e-05
1.10986e-05 -3.31297e-06 1.34843e-05
8.47003e-06 -4.42413e-06 1.24444e-05
1.15041e-05 -6.00309e-06 1.41098e-05
8.95589e-06 -7.13836e-06 1.34284e-05
6.14773e-06 -5.4946e-06 1.16416e-05
6.64473e-06 -8.30115e-06 1.30186e-05
4.10534e-06 -6.58873e-06 1.13112e-05
4.52351e-06 -9.5512e-06 1.29886e-05
2.24237e-06 -7.85855e-06 1.15977e-05
2.48492e-06 -1.10023e-05 1.33513e-05
2.25298e-07 -9.37401e-06 1.23539e-05
3.30024e-07 -1.27703e-05 1.40342e-05
-1.91551e-06 -1.11511e-05 1.33774e-05
-1.84113e-06 -7.92189e-06 1.15825e-05
-4.16805e-06 -9.8752e-06 1.30854e-05
-3.81407e-06 -6.73073e-06 1.13174e-05
-6.34585e-06 -8.66233e-06 1.30997e-05
-5.8915e-06 -5.69821e-06 1.16287e-05
-8.50002e-06 -7.43606e-06 1.33801e-05
-8.16783e-06 -4.72822e-06 1.2409e-05
-1.1096e-05 -6.403e-06 1.40703e-05
-4.37181e-06 -1.31237e-05 1.44341e-05
-1.08092e-05 -3.65081e-06 1.34396e-05
7.22638e-06 -1.13732e-05 1.42734e-05
-7.74197e-06 1.98275e-06 1.14933e-05
-1.32166e-05 1.03509e-06 1.42114e-05
1.72918e-06 1.50834e-05 1.49527e-05
1.37686e-05 4.62255e-07 1.43882e-05
1.38437e-05 6.10033e-06 1.49322e-05
-9.69442e-06 1.01966e-05 1.4533e-05
-5.4162e-06 -3.19776e-06 1.01825e-05
-1.1714e-05 -9.29768e-06 1.48897e-05
1.18828e-05 -8.76053e-06 1.47876e-05
1.47823e-05 -7.47388e-06 1.54038e-05
-1.39603e-05 -5.24409e-06 1.48621e-05
2.79592e-06 -1.45167e-05 1.47967e-05
4.24576e-07 -1.65e-05 1.53982e-05
3.51855e-06 4.39709e-06 9.58145e-06
1.40111e-05 9.2994e-06 1.54921e-05
1.79314e-05 8.14526e-06 1.63011e-05
-1.5676e-05 1.13957e-05 1.6234e-05
-1.09413e-06 1.67697e-05 1.54958e-05
1.90692e-06 1.96223e-05 1.63115e-05
-2.09194e-06 5.22026e-06 9.59794e-06
5.55413e-06 -7.84631e-07 9.59449e-06
3.58608e-06 -3.68369e-06 9.08231e-06
-1.7797e-06 -5.17875e-06 9.44995e-06
-2.24695e-05 -1.10112e-05 1.74748e-05
-1.87989e-05 -9.24176e-06 1.66515e-05
2.11486e-05 1.41653e-05 1.75061e-05
2.07545e-05 -1.43181e-05 1.7436e-05
-1.76464e-06 -2.54474e-05 1.75114e-05
-1.68217e-06 2.54114e-05 1.75161e-05
1.77136e-05 -1.19073e-05 1.66877e-05
2.06465e-05 -1.07515e-05 1.71165e-05
3.77578e-06 -1.89858e-05 1.61399e-05
7.68552e-07 -2.03465e-05 1.64834e-05
-1.94058e-05 -1.2651e-05 1.71436e-05
-1.37316e-05 -2.30701e-06 1.44724e-05
-1.65933e-05 -3.70157e-06 1.54781e-05
-1.03762e-05 -1.09643e-06 1.29525e-05
2.44529e-05 1.10732e-05 1.76521e-05
2.54984e-05 -1.24037e-05 1.78486e-05
2.64929e-06 2.67269e-05 1.76609e-05
2.52104e-06 -2.64145e-05 1.76298e-05
3.33956e-06 -2.30327e-05 1.70296e-05
-2.05397e-06 -1.83206e-05 1.59514e-05
4.05917e-06 2.37922e-05 1.71309e-05
2.26149e-05 8.37958e-06 1.71197e-05
4.61377e-06 1.7314e-05 1.57278e-05
1.44275e-05 -1.31199e-05 1.61379e-05
-1.57882e-05 -1.09851e-05 1.6215e-05
-1.68004e-05 -3.81443e-07 1.53778e-05
1.73066e-05 4.68765e-06 1.57262e-05
6.55236e-08 -6.38752e-06 1.02678e-05
1.74177e-06 -4.84862e-06 9.09281e-06
5.85066e-06 -2.93561e-06 1.03785e-05
-2.14449e-05 3.75066e-06 1.64593e-05
5.72956e-06 -1.62751e-05 1.55082e-05
9.08378e-06 -1.74997e-05 1.5998e-05
1.75728e-05 1.18821e-05 1.66728e-05
1.39947e-05 -1.63828e-05 1.64017e-05
1.07404e-05 -1.37895e-05 1.55506e-05
-3.54808e-06 -4.22033e-06 9.5011e-06
5.39929e-06 1.13853e-06 9.49938e-06
5.21822e-06 3.22298e-06 1.00476e-05
-1.74981e-06 -2.83554e-05 1.78773e-05
1.89212e-06 5.29906e-06 9.58478e-06
-1.13828e-07 6.1052e-06 1.00391e-05
-3.78504e-06 4.12787e-06 9.57874e-06
-5.62286e-06 3.03428e-06 1.02856e-05
-5.16563e-06 1.04071e-06 9.21393e-06
-7.52749e-06 -6.17413e-08 1.11728e-05
-4.3345e-06 -8.10302e-07 8.38215e-06
-3.10868e-06 1.87239e-06 7.37432e-06
-2.20819e-05 -3.6079e-06 1.65163e-05
2.34069e-05 -1.56884e-05 1.78365e-05
-1.50724e-06 2.11686e-05 1.66825e-05
2.12624e-05 -8.4523e-08 1.62262e-05
1.76227e-05 -1.64686e-06 1.55819e-05
1.73483e-05 -4.94185e-06 1.57711e-05
2.18923e-05 -7.45138e-06 1.69141e-05
-2.31829e-05 -1.4255e-05 1.78331e-05
1.73252e-05 1.64893e-06 1.5509e-05
-1.73402e-06 2.84739e-05 1.78945e-05
-4.22084e-07 3.68353e-06 7.49556e-06
2.37727e-05 1.57428e-05 1.7885e-05
-1.74979e-05 1.56427e-05 1.69754e-05
-1.06266e-05 -1.84667e-05 1.62556e-05
-1.00999e-05 -1.43428e-05 1.55722e-05
-7.50803e-06 -1.60954e-05 1.56225e-05
-7.32237e-06 -2.01212e-05 1.63958e-05
-1.07048e-05 1.85359e-05 1.62673e-05
-1.03477e-05 1.43846e-05 1.56198e-05
-7.77289e-06 2.04931e-05 1.64447e-05
-4.25313e-06 1.86103e-05 1.60535e-05
1.07601e-05 1.83461e-05 1.62267e-05
1.38921e-05 1.69355e-05 1.64315e-05
1.40424e-05 1.29733e-05 1.60518e-05
-7.36183e-06 1.62889e-05 1.5639e-05
1.05255e-05 1.45475e-05 1.56457e-05
7.74902e-06 1.60929e-05 1.56144e-05
-3.11656e-06 -1.89882e-06 7.39345e-06
-7.2579e-06 -1.24224e-05 1.46256e-05
3.00875e-06 4.03614e-08 6.60121e-06
4.87275e-06 1.35232e-05 1.46186e-05
1.40765e-05 -2.26047e-06 1.45709e-05
-1.72904e-05 -1.52172e-05 1.6946e-05
-1.73671e-05 2.42039e-06 1.55983e-05
-1.22051e-05 8.91225e-06 1.4944e-05
-7.70589e-06 -2.2926e-06 1.15551e-05
-1.24502e-05 1.1813e-05 1.55405e-05
-1.4274e-07 -3.75434e-06 7.55445e-06
2.73031e-06 2.27215e-06 7.25219e-06
-2.00394e-06 -1.4651e-05 1.48085e-05
9.36543e-06 -1.00686e-05 1.43899e-05
1.38612e-05 3.15793e-06 1.45666e-05
-7.34031e-06 1.11998e-05 1.42608e-05
4.9974e-06 -1.27753e-05 1.43698e-05
1.10323e-05 1.04309e-05 1.49202e-05
-3.59658e-06 1.46858e-05 1.49085e-05
-4.63563e-06 -1.66175e-05 1.55493e-05
-1.95078e-05 1.28929e-05 1.71618e-05
-2.31277e-05 1.48586e-05 1.78439e-05
-1.29054e-05 -1.26865e-05 1.5813e-05
3.76092e-06 -1.58617e-06 7.90724e-06
1.76445e-06 2.92237e-06 7.0847e-06
-9.23082e-06 -1.06099e-05 1.45323e-05
1.72779e-06 -2.82324e-06 6.93132e-06
9.94752e-07 2.41177e-05 1.7309e-05
2.13687e-05 1.11942e-05 1.72991e-05
-1.46652e-05 -7.95368e-06 1.54859e-05
1.37086e-05 -4.7865e-06 1.46912e-05
-1.90994e-06 -2.17637e-05 1.68032e-05
1.80611e-05 -8.41938e-06 1.63412e-05
-1.66795e-05 -6.32881e-06 1.5783e-05
-4.32913e-07 -1.92238e-06 4.79865e-06
-1.80543e-06 2.99554e-06 7.17745e-06
-2.50528e-05 -1.29823e-05 1.79227e-05
-2.5128e-05 -1.45077e-05 1.80026e-05
-2.5046e-05 1.30342e-05 1.79065e-05
-2.51188e-05 1.46504e-05 1.79826e-05
-1.64851e-06 -3.12495e-06 7.21019e-06
6.32819e-06 1.13688e-05 1.40771e-05
5.33721e-07 -2.4087e-05 1.73027e-05
-5.22793e-07 1.8096e-06 4.64518e-06
7.40774e-06 -1.43442e-05 1.51529e-05
2.33037e-05 -1.32098e-05 1.77293e-05
2.36335e-05 -1.0538e-05 1.74913e-05
1.19889e-05 -1.82116e-05 1.62938e-05
1.47307e-05 -1.0147e-05 1.57961e-05
-1.00274e-05 1.00128e-06 1.27551e-05
-1.74006e-06 -8.15926e-07 4.72363e-06
7.69089e-07 3.70847e-06 7.57344e-06
2.34315e-06 -1.99722e-06 6.55554e-06
2.01573e-05 5.89806e-06 1.64542e-05
5.07026e-06 2.05967e-05 1.64966e-05
3.42119e-07 -2.7681e-05 1.78545e-05
-1.73128e-06 7.09132e-07 4.6065e-06
-3.21161e-06 6.23068e-07 6.8244e-06
3.57733e-06 1.47546e-06 7.63692e-06
4.99229e-07 2.83248e-05 1.79277e-05
2.47612e-05 1.37345e-05 1.79189e-05
-2.03291e-05 1.55363e-05 1.74295e-05
1.17874e-06 1.36451e-06 4.46002e-06
-2.06404e-05 -1.57289e-05 1.75281e-05
-1.89996e-05 -2.32228e-06 1.59467e-05
-1.95599e-05 -5.58522e-06 1.63328e-05
9.05712e-07 -3.24786e-06 7.00637e-06
-4.36618e-06 -1.97901e-05 1.63224e-05
-7.9376e-06 1.3835e-05 1.51017e-05
1.16578e-06 -1.30422e-06 4.33946e-06
1.19349e-05 -1.12288e-05 1.52927e-05
6.13326e-06 -2.2697e-05 1.6821e-05
-1.45227e-05 1.43559e-05 1.63242e-05
7.92939e-06 1.33218e-05 1.49486e-05
1.79373e-06 8.58769e-07 -4.55241e-06
1.73786e-06 -8.25136e-07 -4.46096e-06
4.31965e-07 1.84967e-06 -4.49527e-06
4.36109e-07 -1.78068e-06 -4.35624e-06
-1.84753e-06 2.09638e-08 -4.42252e-06
-1.12312e-06 -1.30891e-06 -4.15114e-06
-1.15924e-06 1.30683e-06 -4.19993e-06
-2.25138e-05 -7.28795e-06 -1.70004e-05
-2.21971e-05 7.37185e-06 -1.69691e-05
-4.86058e-06 2.28993e-05 -1.69375e-05
-4.85809e-06 -2.31324e-05 -1.69644e-05
1.74218e-05 1.5636e-05 -1.69303e-05
1.75694e-05 -1.55369e-05 -1.69396e-05
2.10743e-05 3.16401e-06 -1.63249e-05
-1.39536e-05 1.71518e-05 -1.64789e-05
-1.35917e-05 -1.67418e-05 -1.64104e-05
7.76811e-06 1.98202e-05 -1.63317e-05
7.68512e-06 -2.03107e-05 -1.6403e-05
2.14731e-05 -3.44387e-06 -1.64006e-05
-2.11035e-05 6.58812e-09 -1.62471e-05
-2.24211e-05 1.10001e-05 -1.7454e-05
-1.87515e-05 9.25501e-06 -1.66275e-05
-1.79834e-05 5.79566e-06 -1.60368e-05
-1.49845e-05 7.44859e-06 -1.54868e-05
-1.42249e-05 4.30787e-06 -1.48301e-05
-1.1533e-05 5.74408e-06 -1.40951e-05
-1.08584e-05 3.06884e-06 -1.33739e-05
-8.40077e-06 4.30502e-06 -1.24047e-05
-9.05912e-06 7.01365e-06 -1.34567e-05
-6.20431e-06 5.48869e-06 -1.16893e-05
-6.82854e-06 8.24973e-06 -1.30803e-05
-4.28154e-06 6.67513e-06 -1.14508e-05
-4.80018e-06 9.61026e-06 -1.30942e-05
-2.40095e-06 7.99361e-06 -1.17233e-05
-2.81295e-06 1.11676e-05 -1.34753e-05
-4.75427e-07 9.59562e-06 -1.25013e-05
-7.38381e-07 1.29974e-05 -1.41421e-05
1.73114e-06 1.15182e-05 -1.35353e-05
-5.53488e-06 1.27008e-05 -1.44373e-05
1.68514e-06 8.22425e-06 -1.17479e-05
4.00432e-06 1.01212e-05 -1.31513e-05
3.70547e-06 7.09819e-06 -1.14785e-05
6.06761e-06 8.96698e-06 -1.31137e-05
5.76701e-06 6.107e-06 -1.17359e-05
8.35837e-06 8.0206e-06 -1.34924e-05
8.10593e-06 5.19544e-06 -1.25007e-05
1.09544e-05 7.0973e-06 -1.41473e-05
1.07463e-05 4.32295e-06 -1.34994e-05
8.53083e-06 1.10379e-05 -1.44611e-05
7.93796e-06 2.64383e-06 -1.17277e-05
1.06464e-05 1.73726e-06 -1.31044e-05
7.94895e-06 3.58772e-07 -1.14559e-05
1.08068e-05 -7.59139e-07 -1.31245e-05
8.11192e-06 -1.93787e-06 -1.17094e-05
1.10986e-05 -3.31297e-06 -1.34843e-05
8.47003e-06 -4.42413e-06 -1.24444e-05
1.15041e-05 -6.00309e-06 -1.41098e-05
8.95589e-06 -7.13836e-06 -1.34284e-05
6.14773e-06 -5.4946e-06 -1.16416e-05
6.64473e-06 -8.30115e-06 -1.30186e-05
4.10534e-06 -6.58873e-06 -1.13112e-05
4.52351e-06 -9.5512e-06 -1.29886e-05
2.24237e-06 -7.85855e-06 -1.15977e-05
2.48492e-06 -1.10023e-05 -1.33513e-05
2.25298e-07 -9.37401e-06 -1.23539e-05
3.30024e-07 -1.27703e-05 -1.40342e-05
-1.91551e-06 -1.11511e-05 -1.33774e-05
-1.84113e-06 -7.92189e-06 -1.15825e-05
-4.16805e-06 -9.8752e-06 -1.30854e-05
-3.81407e-06 -6.73073e-06 -1.13174e-05
-6.34585e-06 -8.66233e-06 -1.30997e-05
-5.8915e-06 -5.69821e-06 -1.16287e-05
-8.50002e-06 -7.43606e-06 -1.33801e-05
-8.16783e-06 -4.72822e-06 -1.2409e-05
-1.1096e-05 -6.403e-06 -1.40703e-05
-4.37181e-06 -1.31237e-05 -1.44341e-05
-1.08092e-05 -3.65081e-06 -1.34396e-05
7.22638e-06 -1.13732e-05 -1.42734e-05
-7.74197e-06 1.98275e-06 -1.14933e-05
-1.32166e-05 1.03509e-06 -1.42114e-05
1.72918e-06 1.50834e-05 -1.49527e-05
1.37686e-05 4.62255e-07 -1.43882e-05
1.38437e-05 6.10033e-06 -1.49322e-05
-9.69442e-06 1.01966e-05 -1.4533e-05
-5.4162e-06 -3.19776e-06 -1.01825e-05
-1.1714e-05 -9.29768e-06 -1.48897e-05
1.18828e-05 -8.76053e-06 -1.47876e-05
1.47823e-05 -7.47388e-06 -1.54038e-05
-1.39603e-05 -5.24409e-06 -1.48621e-05
2.79592e-06 -1.45167e-05 -1.47967e-05
4.24576e-07 -1.65e-05 -1.53982e-05
3.51855e-06 4.39709e-06 -9.58145e-06
1.40111e-05 9.2994e-06 -1.54921e-05
1.79314e-05 8.14526e-06 -1.63011e-05
-1.5676e-05 1.13957e-05 -1.6234e-05
-1.09413e-06 1.67697e-05 -1.54958e-05
1.90692e-06 1.96223e-05 -1.63115e-05
-2.09194e-06 5.22026e-06 -9.59794e-06
5.55413e-06 -7.84631e-07 -9.59449e-06
3.58608e-06 -3.68369e-06 -9.08231e-06
-1.7797e-06 -5.17875e-06 -9.44995e-06
-2.24695e-05 -1.10112e-05 -1.74748e-05
-1.87989e-05 -9.24176e-06 -1.66515e-05
2.11486e-05 1.41653e-05 -1.75061e-05
2.07545e-05 -1.43181e-05 -1.7436e-05
-1.76464e-06 -2.54474e-05 -1.75114e-05
-1.68217e-06 2.54114e-05 -1.75161e-05
1.77136e-05 -1.19073e-05 -1.66877e-05
2.06465e-05 -1.07515e-05 -1.71165e-05
3.77578e-06 -1.89858e-05 -1.61399e-05
7.68552e-07 -2.03465e-05 -1.64834e-05
-1.94058e-05 -1.2651e-05 -1.71436e-05
-1.37316e-05 -2.30701e-06 -1.44724e-05
-1.65933e-05 -3.70157e-06 -1.54781e-05
-1.03762e-05 -1.09643e-06 -1.29525e-05
2.44529e-05 1.10732e-05 -1.76521e-05
2.54984e-05 -1.24037e-05 -1.78486e-05
2.64929e-06 2.67269e-05 -1.76609e-05
2.52104e-06 -2.64145e-05 -1.76298e-05
3.33956e-06 -2.30327e-05 -1.70296e-05
-2.05397e-06 -1.83206e-05 -1.59514e-05
4.05917e-06 2.37922e-05 -1.71309e-05
2.26149e-05 8.37958e-06 -1.71197e-05
4.61377e-06 1.7314e-05 -1.57278e-05
1.44275e-05 -1.31199e-05 -1.61379e-05
-1.57882e-05 -1.09851e-05 -1.6215e-05
-1.68004e-05 -3.81443e-07 -1.53778e-05
1.73066e-05 4.68765e-06 -1.57262e-05
6.55236e-08 -6.38752e-06 -1.02678e-05
1.74177e-06 -4.84862e-06 -9.09281e-06
5.85066e-06 -2.93561e-06 -1.03785e-05
-2.14449e-05 3.75066e-06 -1.64593e-05
5.72956e-06 -1.62751e-05 -1.55082e-05
9.08378e-06 -1.74997e-05 -1.5998e-05
1.75728e-05 1.18821e-05 -1.66728e-05
1.39947e-05 -1.63828e-05 -1.64017e-05
1.07404e-05 -1.37895e-05 -1.55506e-05
-3.54808e-06 -4.22033e-06 -9.5011e-06
5.39929e-06 1.13853e-06 -9.49938e-06
5.21822e-06 3.22298e-06 -1.00476e-05
-1.74981e-06 -2.83554e-05 -1.78773e-05
1.89212e-06 5.29906e-06 -9.58478e-06
-1.13828e-07 6.1052e-06 -1.00391e-05
-3.78504e-06 4.12787e-06 -9.57874e-06
-5.62286e-06 3.03428e-06 -1.02856e-05
-5.16563e-06 1.04071e-06 -9.21393e-06
-7.52749e-06 -6.17413e-08 -1.11728e-05
-4.3345e-06 -8.10302e-07 -8.38215e-06
-3.10868e-06 1.87239e-06 -7.37432e-06
-2.20819e-05 -3.6079e-06 -1.65163e-05
2.34069e-05 -1.56884e-05 -1.78365e-05
-1.50724e-06 2.11686e-05 -1.66825e-05
2.12624e-05 -8.4523e-08 -1.62262e-05
1.76227e-05 -1.64686e-06 -1.55819e-05
1.73483e-05 -4.94185e-06 -1.57711e-05
2.18923e-05 -7.45138e-06 -1.69141e-05
-2.31829e-05 -1.4255e-05 -1.78331e-05
1.73252e-05 1.64893e-06 -1.5509e-05