# vtk DataFile Version 3.0
vtk output at time 190
ASCII
DATASET UNSTRUCTURED_GRID
POINTS 626 float
-3.68058e-05 0.000978749 0 3.68058e-05 0.000978749 0 -0.000829194 0.00052125 0 
-0.0008235 0.0005 0 -0.000866 0.0004575 0 -0.000866 -0.0004575 0 
-0.0008235 -0.0005 0 -0.000829194 -0.00052125 0 -3.68058e-05 -0.000978749 0 
3.68058e-05 -0.000978749 0 0.000829194 -0.00052125 0 0.000866 -0.0004575 0 
0.000866 0.0004575 0 0.000829194 0.00052125 0 8.5e-05 0 0 
-3.68058e-05 0.000978749 -0.001 3.68058e-05 0.000978749 -0.001 -0.000829194 0.00052125 -0.001 
-0.0008235 0.0005 -0.001 -0.000866 0.0004575 -0.001 -0.000866 -0.0004575 -0.001 
-0.0008235 -0.0005 -0.001 -0.000829194 -0.00052125 -0.001 -3.68058e-05 -0.000978749 -0.001 
3.68058e-05 -0.000978749 -0.001 0.000829194 -0.00052125 -0.001 0.000866 -0.0004575 -0.001 
0.000866 0.0004575 -0.001 0.000829194 0.00052125 -0.001 8.5e-05 0 -0.001 
8.46223e-17 0.0009575 0 -0.000715996 0.000586607 0 -0.000602797 0.000651965 0 
-0.000489599 0.000717321 0 -0.000376401 0.000782678 0 -0.000263202 0.000848036 0 
-0.000150004 0.000913393 0 -0.000835948 0.000469948 0 -0.000866 -0.000326786 0 
-0.000866 -0.000196071 0 -0.000866 -6.53571e-05 0 -0.000866 6.53571e-05 0 
-0.000866 0.000196071 0 -0.000866 0.000326786 0 -0.000835948 -0.000469948 0 
-0.000150004 -0.000913393 0 -0.000263202 -0.000848036 0 -0.000376401 -0.000782678 0 
-0.000489599 -0.000717321 0 -0.000602797 -0.000651965 0 -0.000715996 -0.000586607 0 
8.47648e-17 -0.0009575 0 0.000715996 -0.000586607 0 0.000602797 -0.000651965 0 
0.000489599 -0.000717321 0 0.000376401 -0.000782678 0 0.000263202 -0.000848036 0 
0.000150004 -0.000913393 0 0.000829194 -0.00047875 0 0.000866 0.000326786 0 
0.000866 0.000196071 0 0.000866 6.53571e-05 0 0.000866 -6.53571e-05 0 
0.000866 -0.000196071 0 0.000866 -0.000326786 0 0.000829194 0.00047875 0 
0.000150004 0.000913393 0 0.000263202 0.000848036 0 0.000376401 0.000782678 0 
0.000489599 0.000717321 0 0.000602797 0.000651965 0 0.000715996 0.000586607 0 
5.29966e-05 6.64557e-05 0 -1.89143e-05 8.28689e-05 0 -7.65824e-05 3.68801e-05 0 
-7.65824e-05 -3.68801e-05 0 -1.89143e-05 -8.28689e-05 0 5.29966e-05 -6.64557e-05 0 
8.46223e-17 0.0009575 -0.001 -0.000715996 0.000586607 -0.001 -0.000602797 0.000651965 -0.001 
-0.000489599 0.000717321 -0.001 -0.000376401 0.000782678 -0.001 -0.000263202 0.000848036 -0.001 
-0.000150004 0.000913393 -0.001 -0.000835948 0.000469948 -0.001 -0.000866 -0.000326786 -0.001 
-0.000866 -0.000196071 -0.001 -0.000866 -6.53571e-05 -0.001 -0.000866 6.53571e-05 -0.001 
-0.000866 0.000196071 -0.001 -0.000866 0.000326786 -0.001 -0.000835948 -0.000469948 -0.001 
-0.000150004 -0.000913393 -0.001 -0.000263202 -0.000848036 -0.001 -0.000376401 -0.000782678 -0.001 
-0.000489599 -0.000717321 -0.001 -0.000602797 -0.000651965 -0.001 -0.000715996 -0.000586607 -0.001 
8.47648e-17 -0.0009575 -0.001 0.000715996 -0.000586607 -0.001 0.000602797 -0.000651965 -0.001 
0.000489599 -0.000717321 -0.001 0.000376401 -0.000782678 -0.001 0.000263202 -0.000848036 -0.001 
0.000150004 -0.000913393 -0.001 0.000829194 -0.00047875 -0.001 0.000866 0.000326786 -0.001 
0.000866 0.000196071 -0.001 0.000866 6.53571e-05 -0.001 0.000866 -6.53571e-05 -0.001 
0.000866 -0.000196071 -0.001 0.000866 -0.000326786 -0.001 0.000829194 0.00047875 -0.001 
0.000150004 0.000913393 -0.001 0.000263202 0.000848036 -0.001 0.000376401 0.000782678 -0.001 
0.000489599 0.000717321 -0.001 0.000602797 0.000651965 -0.001 0.000715996 0.000586607 -0.001 
5.29966e-05 6.64557e-05 -0.001 -1.89143e-05 8.28689e-05 -0.001 -7.65824e-05 3.68801e-05 -0.001 
-7.65824e-05 -3.68801e-05 -0.001 -1.89143e-05 -8.28689e-05 -0.001 5.29966e-05 -6.64557e-05 -0.001 
0.000131234 6.38474e-05 0 0.00012964 -6.2443e-05 0 3.13827e-05 0.0001394 0 
3.12554e-05 -0.000136939 0 -0.000140461 8.25467e-19 0 -8.90565e-05 -0.000102707 0 
-9.04142e-05 0.000102872 0 -0.000765769 -0.00025965 0 -0.000756873 0.000262774 0 
-0.00015609 0.000787505 0 -0.000155807 -0.00079355 0 0.000605069 0.000528035 0 
0.000608694 -0.00052497 0 0.000744069 0.000116929 0 -0.000494418 0.000596218 0 
-0.000483866 -0.000584648 0 0.000269496 0.000702219 0 0.000263201 -0.000717324 0 
0.000754429 -0.000127825 0 -0.000748858 5.84659e-07 0 -0.000747838 0.000373886 0 
-0.0006542 0.000324842 0 -0.000645137 0.000210123 0 -0.000550884 0.000274171 0 
-0.000538857 0.000163195 0 -0.00045062 0.000224461 0 -0.000438393 0.000123907 0 
-0.000354088 0.000181668 0 -0.000363908 0.000282171 0 -0.000270361 0.000239477 0 
-0.000279138 0.000337653 0 -0.000188888 0.000294791 0 -0.000196448 0.000393271 0 
-0.000104767 0.000348259 0 -0.000113332 0.000449012 0 -2.01066e-05 0.000403223 0 
-2.89189e-05 0.000507105 0 6.9524e-05 0.000461596 0 -0.000213644 0.000490203 0 
7.33757e-05 0.000357726 0 0.000163331 0.00041299 0 0.000163359 0.000313022 0 
0.000248077 0.000366368 0 0.000250914 0.000265758 0 0.000335709 0.000322266 0 
0.000340555 0.000218148 0 0.000427299 0.000276717 0 0.000431508 0.000173093 0 
0.000328731 0.000425633 0 0.00034586 0.000114823 0 0.000435362 7.05241e-05 0 
0.000350892 1.5455e-05 0 0.000441547 -3.11896e-05 0 0.000353547 -8.47783e-05 0 
0.000445767 -0.000132964 0 0.000356135 -0.000186358 0 0.000449094 -0.000234674 0 
0.000359978 -0.000287876 0 0.00026856 -0.000240545 0 0.000271895 -0.000341045 0 
0.000181792 -0.00029305 0 0.00018533 -0.000392851 0 9.75701e-05 -0.00034483 0 
9.98764e-05 -0.000444884 0 8.75116e-06 -0.000396343 0 1.20916e-05 -0.000500496 0 
-7.83929e-05 -0.000449843 0 -8.1471e-05 -0.000347249 0 -0.000171566 -0.000403733 0 
-0.000169889 -0.000298891 0 -0.000259867 -0.000354132 0 -0.000257696 -0.000249137 0 
-0.00034313 -0.000299896 0 -0.000344514 -0.000199127 0 -0.000434309 -0.000250039 0 
-0.000169832 -0.000505815 0 -0.000435227 -0.000146227 0 0.000280331 -0.000442424 0 
-0.000340889 8.76793e-05 0 -0.000515252 4.06198e-05 0 6.50491e-05 0.000568253 0 
0.00053278 1.74743e-05 0 0.000522071 0.000229831 0 -0.00037162 0.000391659 0 
-0.000255272 -0.000150439 0 -0.000442893 -0.000350705 0 0.000450067 -0.000332559 0 
0.000545175 -0.000276306 0 -0.000527797 -0.000197598 0 0.000105306 -0.000551033 0 
1.45836e-05 -0.000609147 0 0.00017145 0.000214453 0 0.000515525 0.000341711 0 
0.000636086 0.000290368 0 -0.000558657 0.000404468 0 -4.01232e-05 0.000616718 0 
6.60192e-05 0.000696422 0 -0.000101806 0.0002546 0 0.000271142 -3.88908e-05 0 
0.000179455 -0.00018534 0 -8.79553e-05 -0.000254307 0 -0.000749267 -0.000373451 0 
-0.000655941 -0.000323397 0 0.000709746 0.000466718 0 0.000698426 -0.000473086 0 
-5.25801e-05 -0.00084886 0 -4.93005e-05 0.000848038 0 0.000617396 -0.000413362 0 
0.000702056 -0.000369817 0 0.000131459 -0.000679171 0 2.48171e-05 -0.000715924 0 
-0.000664217 -0.00042729 0 -0.000528828 -8.80444e-05 0 -0.000611101 -0.000136672 0 
-0.000426972 -4.45841e-05 0 0.000800669 0.000378216 0 0.000821144 -0.000415062 0 
7.2799e-05 0.00088254 0 6.81831e-05 -0.00087503 0 0.000104963 -0.000788946 0 
-7.40696e-05 -0.000660054 0 0.000126061 0.000809943 0 0.000764361 0.000295682 0 
0.000166862 0.000630623 0 0.000516462 -0.00046707 0 -0.000563585 -0.000389606 0 
-0.000622598 -1.40238e-05 0 0.000629891 0.000171529 0 2.5614e-06 -0.000299794 0 
8.6901e-05 -0.00024329 0 0.000272045 -0.000136982 0 -0.00075148 0.000138321 0 
0.000209366 -0.000599589 0 0.000324913 -0.000630055 0 0.000614044 0.00041245 0 
0.00049651 -0.000573327 0 0.000394822 -0.000507321 0 -0.000173714 -0.000206698 0 
0.000264897 5.63722e-05 0 0.000247997 0.000152811 0 -4.63327e-05 -0.000920208 0 
9.18688e-05 0.000258626 0 -5.54111e-06 0.000290558 0 -0.000184219 0.000201484 0 
-0.000263559 0.000142267 0 -0.000256427 5.13624e-05 0 -0.000336894 -2.06179e-06 0 
-0.000228499 -4.2388e-05 0 -0.00017589 0.000106626 0 -0.000769947 -0.000133367 0 
0.000767591 -0.000500293 0 -5.05874e-05 0.000737978 0 0.000754456 -3.51771e-06 0 
0.00064691 -6.15298e-05 0 0.000630483 -0.00018134 0 0.000749187 -0.000265543 0 
-0.000760805 -0.000462521 0 0.000638155 6.09315e-05 0 -4.46661e-05 0.000922995 0 
-2.37945e-05 0.000207237 0 0.000776979 0.000500181 0 -0.000605691 0.000527596 0 
-0.000377914 -0.000653727 0 -0.000372325 -0.000526022 0 -0.000275829 -0.000589621 0 
-0.000254285 -0.000710579 0 -0.000379307 0.000656222 0 -0.000379818 0.00052718 0 
-0.000266817 0.000721555 0 -0.000150544 0.000668174 0 0.000381963 0.00065079 0 
0.000493113 0.000590432 0 0.000505439 0.000463708 0 -0.000269094 0.000596608 0 
0.000385815 0.000532045 0 0.000283599 0.0005899 0 -0.000176405 -0.000108505 0 
-0.000278769 -0.000475415 0 0.000185395 2.33014e-06 0 0.000186773 0.000517571 0 
0.000540032 -8.68444e-05 0 -0.000600694 -0.000514877 0 -0.00063703 8.98033e-05 0 
-0.000459677 0.000335729 0 -0.000338836 -0.000100751 0 -0.000457327 0.000432721 0 
-8.72007e-06 -0.000210238 0 0.000156073 0.000129496 0 -7.70692e-05 -0.000555049 0 
0.00036091 -0.000389728 0 0.000531628 0.000120564 0 -0.000285451 0.000435562 0 
0.000192719 -0.000494604 0 0.00041642 0.00039368 0 -0.000135943 0.000554637 0 
-0.000170665 -0.000610079 0 -0.000666304 0.000434981 0 -0.000758736 0.000479231 0 
-0.000470189 -0.000458901 0 0.000203433 -8.59809e-05 0 0.000101846 0.000170114 0 
-0.00035513 -0.00040726 0 0.000100184 -0.000165831 0 2.96286e-05 0.00081537 0 
0.000720946 0.000381836 0 -0.000539809 -0.000292001 0 0.00052211 -0.000182426 0 
-6.41339e-05 -0.000753908 0 0.000638039 -0.000299861 0 -0.000605136 -0.000230182 0 
-3.41638e-05 -0.000145561 0 -0.000104037 0.000172396 0 -0.000808575 -0.00042774 0 
-0.000807207 -0.000465052 0 -0.00080817 0.000429771 0 -0.000806589 0.000469738 0 
-9.50634e-05 -0.000178909 0 0.000247777 0.000445058 0 1.48293e-05 -0.000814201 0 
-4.11555e-05 0.000140955 0 0.000276104 -0.000536845 0 0.000765969 -0.000436638 0 
0.000780871 -0.000362769 0 0.000424176 -0.000642018 0 0.00053413 -0.000368009 0 
-0.000416333 4.17911e-05 0 -0.000133891 -6.23822e-05 0 4.2574e-05 0.000206312 0 
[...]
POINT_DATA 626
VECTORS displacement float
-1.74394e-06 3.09549e-05 1.80552e-05
1.73565e-06 3.0974e-05 1.81003e-05
-2.59867e-05 1.69931e-05 1.80873e-05
-2.58413e-05 1.60332e-05 1.80519e-05
-2.77211e-05 1.3973e-05 1.80693e-05
-2.7714e-05 -1.40193e-05 1.80947e-05
-2.58125e-05 -1.60714e-05 1.81061e-05
-2.59829e-05 -1.70112e-05 1.81673e-05
-1.6774e-06 -3.09587e-05 1.80516e-05
1.75545e-06 -3.09602e-05 1.81021e-05
2.59441e-05 -1.69809e-05 1.80437e-05
2.77174e-05 -1.39369e-05 1.80436e-05
2.76729e-05 1.39897e-05 1.80919e-05
2.59154e-05 1.69932e-05 1.80463e-05
0 0 0
-1.74394e-06 3.09549e-05 -1.80552e-05
1.73565e-06 3.0974e-05 -1.81003e-05
-2.59867e-05 1.69931e-05 -1.80873e-05
-2.58413e-05 1.60332e-05 -1.80519e-05
-2.77211e-05 1.3973e-05 -1.80693e-05
-2.7714e-05 -1.40193e-05 -1.80947e-05
-2.58125e-05 -1.60714e-05 -1.81061e-05
-2.59829e-05 -1.70112e-05 -1.81673e-05
-1.6774e-06 -3.09587e-05 -1.80516e-05
1.75545e-06 -3.09602e-05 -1.81021e-05
2.59441e-05 -1.69809e-05 -1.80437e-05
2.77174e-05 -1.39369e-05 -1.80436e-05
2.76729e-05 1.39897e-05 -1.80919e-05
2.59154e-05 1.69932e-05 -1.80463e-05
0 0 0
2.48922e-08 3.01548e-05 1.80344e-05
-2.1141e-05 1.87127e-05 1.755e-05
-1.72329e-05 1.98342e-05 1.69211e-05
-1.40072e-05 2.10546e-05 1.65552e-05
-1.12071e-05 2.26653e-05 1.65491e-05
-8.52421e-06 2.48333e-05 1.69016e-05
-5.56784e-06 2.76222e-05 1.75377e-05
-2.64503e-05 1.46794e-05 1.80337e-05
-2.67692e-05 -9.01173e-06 1.75776e-05
-2.58067e-05 -5.0356e-06 1.69262e-05
-2.5255e-05 -1.63625e-06 1.65717e-05
-2.52579e-05 1.60789e-06 1.65746e-05
-2.5799e-05 5.023e-06 1.69244e-05
-2.67554e-05 8.98482e-06 1.75641e-05
-2.64372e-05 -1.47257e-05 1.80625e-05
-5.5411e-06 -2.76367e-05 1.75299e-05
-8.47673e-06 -2.48424e-05 1.69009e-05
-1.11703e-05 -2.26847e-05 1.65564e-05
-1.39709e-05 -2.10876e-05 1.65598e-05
-1.72153e-05 -1.98695e-05 1.69369e-05
-2.11346e-05 -1.87495e-05 1.75624e-05
8.98371e-08 -3.01396e-05 1.80296e-05
2.11244e-05 -1.86251e-05 1.75117e-05
1.7245e-05 -1.97625e-05 1.68731e-05
1.40342e-05 -2.10116e-05 1.65118e-05
1.12253e-05 -2.25934e-05 1.65464e-05
8.58137e-06 -2.47806e-05 1.68744e-05
5.65472e-06 -2.76269e-05 1.75352e-05
2.6125e-05 -1.50599e-05 1.80286e-05
2.67173e-05 8.93861e-06 1.75017e-05
2.57225e-05 5.04972e-06 1.69086e-05
2.52071e-05 1.62336e-06 1.65234e-05
2.52042e-05 -1.59948e-06 1.65217e-05
2.57512e-05 -4.99751e-06 1.68886e-05
2.66993e-05 -8.91736e-06 1.75099e-05
2.6108e-05 1.50611e-05 1.80256e-05
5.63318e-06 2.76183e-05 1.75098e-05
8.50874e-06 2.48073e-05 1.69114e-05
1.12173e-05 2.26415e-05 1.65296e-05
1.40048e-05 2.10225e-05 1.6525e-05
1.7222e-05 1.97938e-05 1.68853e-05
2.11154e-05 1.86347e-05 1.75256e-05
0 0 0
0 0 0
0 0 0
0 0 0
0 0 0
0 0 0
2.48922e-08 3.01548e-05 -1.80344e-05
-2.1141e-05 1.87127e-05 -1.755e-05
-1.72329e-05 1.98342e-05 -1.69211e-05
-1.40072e-05 2.10546e-05 -1.65552e-05
-1.12071e-05 2.26653e-05 -1.65491e-05
-8.52421e-06 2.48333e-05 -1.69016e-05
-5.56784e-06 2.76222e-05 -1.75377e-05
-2.64503e-05 1.46794e-05 -1.80337e-05
-2.67692e-05 -9.01173e-06 -1.75776e-05
-2.58067e-05 -5.0356e-06 -1.69262e-05
-2.5255e-05 -1.63625e-06 -1.65717e-05
-2.52579e-05 1.60789e-06 -1.65746e-05
-2.5799e-05 5.023e-06 -1.69244e-05
-2.67554e-05 8.98482e-06 -1.75641e-05
-2.64372e-05 -1.47257e-05 -1.80625e-05
-5.5411e-06 -2.76367e-05 -1.75299e-05
-8.47673e-06 -2.48424e-05 -1.69009e-05
-1.11703e-05 -2.26847e-05 -1.65564e-05
-1.39709e-05 -2.10876e-05 -1.65598e-05
-1.72153e-05 -1.98695e-05 -1.69369e-05
-2.11346e-05 -1.87495e-05 -1.75624e-05
8.98371e-08 -3.01396e-05 -1.80296e-05
2.11244e-05 -1.86251e-05 -1.75117e-05
1.7245e-05 -1.97625e-05 -1.68731e-05
1.40342e-05 -2.10116e-05 -1.65118e-05
1.12253e-05 -2.25934e-05 -1.65464e-05
8.58137e-06 -2.47806e-05 -1.68744e-05
5.65472e-06 -2.76269e-05 -1.75352e-05
2.6125e-05 -1.50599e-05 -1.80286e-05
2.67173e-05 8.93861e-06 -1.75017e-05
2.57225e-05 5.04972e-06 -1.69086e-05
2.52071e-05 1.62336e-06 -1.65234e-05
2.52042e-05 -1.59948e-06 -1.65217e-05
2.57512e-05 -4.99751e-06 -1.68886e-05
2.66993e-05 -8.91736e-06 -1.75099e-05
2.6108e-05 1.50611e-05 -1.80256e-05
5.63318e-06 2.76183e-05 -1.75098e-05
8.50874e-06 2.48073e-05 -1.69114e-05
1.12173e-05 2.26415e-05 -1.65296e-05
1.40048e-05 2.10225e-05 -1.6525e-05
1.7222e-05 1.97938e-05 -1.68853e-05
2.11154e-05 1.86347e-05 -1.75256e-05
0 0 0
0 0 0
0 0 0
0 0 0
0 0 0
0 0 0
1.7937e-06 8.58757e-07 4.55233e-06
1.73784e-06 -8.25125e-07 4.46088e-06
4.31959e-07 1.84965e-06 4.4952e-06
4.36104e-07 -1.78065e-06 4.35616e-06
-1.84751e-06 2.09635e-08 4.42244e-06
-1.1231e-06 -1.30889e-06 4.15107e-06
-1.15922e-06 1.30681e-06 4.19985e-06
-2.25134e-05 -7.28782e-06 1.70002e-05
-2.21968e-05 7.37171e-06 1.69688e-05
-4.86051e-06 2.28989e-05 1.69372e-05
-4.85802e-06 -2.3132e-05 1.69641e-05
1.74215e-05 1.56357e-05 1.69301e-05
1.75691e-05 -1.55367e-05 1.69393e-05
2.10739e-05 3.16394e-06 1.63246e-05
-1.39534e-05 1.71516e-05 1.64786e-05
-1.35914e-05 -1.67415e-05 1.64102e-05
7.76798e-06 1.98199e-05 1.63314e-05
7.68499e-06 -2.03103e-05 1.64027e-05
2.14727e-05 -3.4438e-06 1.64004e-05
-2.11031e-05 6.58811e-09 1.62469e-05
-2.24207e-05 1.09999e-05 1.74538e-05
-1.87512e-05 9.25486e-06 1.66273e-05
-1.79831e-05 5.79555e-06 1.60365e-05
-1.49842e-05 7.44846e-06 1.54865e-05
-1.42247e-05 4.30779e-06 1.48298e-05
-1.15328e-05 5.74398e-06 1.40949e-05
-1.08582e-05 3.06879e-06 1.33737e-05
-8.40063e-06 4.30494e-06 1.24045e-05
-9.05896e-06 7.01352e-06 1.34565e-05
-6.20421e-06 5.4886e-06 1.16891e-05
-6.82842e-06 8.24958e-06 1.30801e-05
-4.28147e-06 6.67502e-06 1.14506e-05
-4.80009e-06 9.61009e-06 1.3094e-05
-2.40091e-06 7.99348e-06 1.1723e-05
-2.8129e-06 1.11674e-05 1.3475e-05
-4.75419e-07 9.59545e-06 1.25011e-05
-7.38367e-07 1.29971e-05 1.41419e-05
1.73111e-06 1.1518e-05 1.35351e-05
-5.53478e-06 1.27006e-05 1.44371e-05
1.68511e-06 8.22411e-06 1.17477e-05
4.00425e-06 1.01211e-05 1.3151e-05
3.70541e-06 7.09807e-06 1.14783e-05
6.06751e-06 8.96682e-06 1.31135e-05
5.76692e-06 6.10689e-06 1.17357e-05
8.35823e-06 8.02046e-06 1.34921e-05
8.10579e-06 5.19535e-06 1.25004e-05
1.09542e-05 7.09717e-06 1.41471e-05
1.07462e-05 4.32287e-06 1.34992e-05
8.53067e-06 1.10377e-05 1.44609e-05
7.93783e-06 2.64379e-06 1.17275e-05
1.06462e-05 1.73723e-06 1.31041e-05
7.94882e-06 3.58766e-07 1.14557e-05
1.08066e-05 -7.59126e-07 1.31242e-05
8.11178e-06 -1.93783e-06 1.17092e-05
1.10985e-05 -3.31291e-06 1.3484e-05
8.46988e-06 -4.42406e-06 1.24442e-05
1.15039e-05 -6.00299e-06 1.41095e-05
8.95573e-06 -7.13823e-06 1.34282e-05
6.14763e-06 -5.49451e-06 1.16414e-05
6.64461e-06 -8.30101e-06 1.30184e-05
4.10527e-06 -6.58862e-06 1.1311e-05
4.52343e-06 -9.55103e-06 1.29884e-05
2.24233e-06 -7.85842e-06 1.15975e-05
2.48488e-06 -1.10021e-05 1.33511e-05
2.25294e-07 -9.37385e-06 1.23537e-05
3.30019e-07 -1.277e-05 1.4034e-05
-1.91547e-06 -1.11509e-05 1.33771e-05
-1.8411e-06 -7.92175e-06 1.15823e-05
-4.16797e-06 -9.87503e-06 1.30852e-05
-3.81401e-06 -6.73062e-06 1.13172e-05
-6.34573e-06 -8.66218e-06 1.30994e-05
-5.8914e-06 -5.69811e-06 1.16285e-05
-8.49988e-06 -7.43593e-06 1.33798e-05
-8.16769e-06 -4.72814e-06 1.24088e-05
-1.10959e-05 -6.40288e-06 1.407e-05
-4.37173e-06 -1.31234e-05 1.44338e-05
-1.0809e-05 -3.65075e-06 1.34394e-05
7.22625e-06 -1.1373e-05 1.42731e-05
-7.74184e-06 1.98272e-06 1.1493e-05
-1.32164e-05 1.03508e-06 1.42111e-05
1.72915e-06 1.50831e-05 1.49524e-05
1.37683e-05 4.62247e-07 1.4388e-05
1.38434e-05 6.10022e-06 1.49319e-05
-9.69424e-06 1.01965e-05 1.45327e-05
-5.41611e-06 -3.19771e-06 1.01823e-05
-1.17138e-05 -9.29752e-06 1.48894e-05
1.18826e-05 -8.76038e-06 1.47873e-05
1.47821e-05 -7.47375e-06 1.54036e-05
-1.396e-05 -5.244e-06 1.48619e-05
2.79588e-06 -1.45164e-05 1.47964e-05
4.2457e-07 -1.64997e-05 1.5398e-05
3.5185e-06 4.39702e-06 9.58127e-06
1.40109e-05 9.29924e-06 1.54918e-05
1.79311e-05 8.14512e-06 1.63008e-05
-1.56758e-05 1.13956e-05 1.62337e-05
-1.09411e-06 1.67694e-05 1.54955e-05
1.90689e-06 1.9622e-05 1.63112e-05
-2.09191e-06 5.22017e-06 9.59777e-06
5.55405e-06 -7.84618e-07 9.59432e-06
3.58602e-06 -3.68363e-06 9.08214e-06
-1.77967e-06 -5.17867e-06 9.44978e-06
-2.24692e-05 -1.1011e-05 1.74746e-05
-1.87985e-05 -9.2416e-06 1.66513e-05
2.11482e-05 1.4165e-05 1.75058e-05
2.07542e-05 -1.43179e-05 1.74358e-05
-1.76463e-06 -2.5447e-05 1.75112e-05
-1.68215e-06 2.5411e-05 1.75158e-05
1.77133e-05 -1.19071e-05 1.66874e-05
2.06461e-05 -1.07513e-05 1.71162e-05
3.77571e-06 -1.89855e-05 1.61397e-05
7.68543e-07 -2.03462e-05 1.64831e-05
-1.94055e-05 -1.26508e-05 1.71434e-05
-1.37314e-05 -2.30697e-06 1.44721e-05
-1.6593e-05 -3.7015e-06 1.54778e-05
-1.0376e-05 -1.09641e-06 1.29523e-05
2.44525e-05 1.1073e-05 1.76519e-05
2.5498e-05 -1.24035e-05 1.78484e-05
2.64927e-06 2.67265e-05 1.76607e-05
2.52103e-06 -2.64141e-05 1.76296e-05
3.33951e-06 -2.30323e-05 1.70293e-05
-2.05393e-06 -1.83202e-05 1.59511e-05
4.05912e-06 2.37918e-05 1.71306e-05
2.26146e-05 8.37942e-06 1.71195e-05
4.61369e-06 1.73137e-05 1.57275e-05
1.44273e-05 -1.31197e-05 1.61376e-05
-1.5788e-05 -1.09849e-05 1.62148e-05
-1.68001e-05 -3.81435e-07 1.53776e-05
1.73062e-05 4.68757e-06 1.57259e-05
6.55228e-08 -6.38742e-06 1.02676e-05
1.74174e-06 -4.84854e-06 9.09265e-06
5.85056e-06 -2.93556e-06 1.03783e-05
-2.14446e-05 3.75058e-06 1.64591e-05
5.72946e-06 -1.62748e-05 1.5508e-05
9.08362e-06 -1.74993e-05 1.59977e-05
1.75725e-05 1.18819e-05 1.66725e-05
1.39945e-05 -1.63825e-05 1.64015e-05
1.07402e-05 -1.37892e-05 1.55503e-05
-3.54803e-06 -4.22026e-06 9.50093e-06
5.3992e-06 1.13851e-06 9.49921e-06
5.21813e-06 3.22293e-06 1.00474e-05
-1.7498e-06 -2.83549e-05 1.78771e-05
1.89209e-06 5.29897e-06 9.58461e-06
-1.13825e-07 6.1051e-06 1.00389e-05
-3.78498e-06 4.12781e-06 9.57857e-06
-5.62277e-06 3.03423e-06 1.02854e-05
-5.16555e-06 1.04069e-06 9.21377e-06
-7.52736e-06 -6.17402e-08 1.11726e-05
-4.33444e-06 -8.1029e-07 8.382e-06
-3.10863e-06 1.87236e-06 7.37419e-06
-2.20815e-05 -3.60782e-06 1.6516e-05
2.34066e-05 -1.56882e-05 1.78363e-05
-1.50722e-06 2.11682e-05 1.66823e-05
2.1262e-05 -8.45213e-08 1.6226e-05
1.76224e-05 -1.64683e-06 1.55817e-05
1.7348e-05 -4.94176e-06 1.57709e-05
2.18919e-05 -7.45124e-06 1.69138e-05
-2.31825e-05 -1.42548e-05 1.78329e-05
1.73249e-05 1.6489e-06 1.55088e-05
-1.73401e-06 2.84735e-05 1.78943e-05
-4.22078e-07 3.68347e-06 7.49543e-06
2.37723e-05 1.57426e-05 1.78848e-05
-1.74976e-05 1.56425e-05 1.69752e-05
-1.06264e-05 -1.84664e-05 1.62553e-05
-1.00997e-05 -1.43426e-05 1.55719e-05
-7.5079e-06 -1.60951e-05 1.56223e-05
-7.32224e-06 -2.01208e-05 1.63955e-05
-1.07046e-05 1.85355e-05 1.6267e-05
-1.03475e-05 1.43843e-05 1.56196e-05
-7.77276e-06 2.04927e-05 1.64445e-05
-4.25306e-06 1.861e-05 1.60532e-05
1.07599e-05 1.83457e-05 1.62264e-05
1.38919e-05 1.69352e-05 1.64312e-05
1.40422e-05 1.29731e-05 1.60515e-05
-7.3617e-06 1.62886e-05 1.56387e-05
1.05253e-05 1.45473e-05 1.56454e-05
7.74888e-06 1.60926e-05 1.56142e-05
-3.11651e-06 -1.89879e-06 7.39331e-06
-7.25777e-06 -1.24222e-05 1.46254e-05
3.0087e-06 4.03608e-08 6.6011e-06
4.87266e-06 1.3523e-05 1.46183e-05
1.40763e-05 -2.26043e-06 1.45707e-05
-1.72901e-05 -1.5217e-05 1.69457e-05
-1.73668e-05 2.42035e-06 1.55981e-05
-1.22049e-05 8.91209e-06 1.49437e-05
-7.70576e-06 -2.29256e-06 1.15549e-05
-1.245e-05 1.18128e-05 1.55402e-05
-1.42738e-07 -3.75428e-06 7.55432e-06
2.73027e-06 2.27211e-06 7.25206e-06
-2.0039e-06 -1.46507e-05 1.48083e-05
9.36526e-06 -1.00684e-05 1.43896e-05
1.3861e-05 3.15787e-06 1.45663e-05
-7.34017e-06 1.11996e-05 1.42605e-05
4.99731e-06 -1.2775e-05 1.43695e-05
1.10321e-05 1.04307e-05 1.49199e-05
-3.59651e-06 1.46855e-05 1.49083e-05
-4.63555e-06 -1.66172e-05 1.55491e-05
-1.95074e-05 1.28927e-05 1.71615e-05
-2.31273e-05 1.48584e-05 1.78437e-05
-1.29052e-05 -1.26863e-05 1.58128e-05
3.76086e-06 -1.58615e-06 7.9071e-06
1.76442e-06 2.92233e-06 7.08457e-06
-9.23066e-06 -1.06097e-05 1.4532e-05
1.72777e-06 -2.8232e-06 6.9312e-06
9.94743e-07 2.41173e-05 1.73087e-05
2.13684e-05 1.11941e-05 1.72989e-05
-1.46649e-05 -7.95354e-06 1.54856e-05
1.37083e-05 -4.78641e-06 1.46909e-05
-1.90992e-06 -2.17634e-05 1.6803e-05
1.80607e-05 -8.41923e-06 1.6341e-05
-1.66793e-05 -6.32869e-06 1.57827e-05
-4.32907e-07 -1.92235e-06 4.79857e-06
-1.8054e-06 2.99549e-06 7.17732e-06
-2.50524e-05 -1.2982e-05 1.79225e-05
-2.51276e-05 -1.45075e-05 1.80024e-05
-2.50456e-05 1.30339e-05 1.79063e-05
-2.51185e-05 1.46502e-05 1.79824e-05
-1.64848e-06 -3.1249e-06 7.21006e-06
6.32807e-06 1.13686e-05 1.40768e-05
5.33716e-07 -2.40866e-05 1.73025e-05
-5.22786e-07 1.80957e-06 4.6451e-06
7.40761e-06 -1.4344e-05 1.51527e-05
2.33033e-05 -1.32096e-05 1.77291e-05
2.36331e-05 -1.05378e-05 1.74911e-05
1.19887e-05 -1.82113e-05 1.62936e-05
1.47304e-05 -1.01469e-05 1.57959e-05
-1.00273e-05 1.00127e-06 1.27549e-05
-1.74004e-06 -8.15915e-07 4.72355e-06
7.69078e-07 3.70842e-06 7.5733e-06
2.34311e-06 -1.99719e-06 6.55542e-06
2.01569e-05 5.89795e-06 1.64539e-05
5.07018e-06 2.05964e-05 1.64963e-05
3.42119e-07 -2.76805e-05 1.78543e-05
-1.73126e-06 7.09123e-07 4.60642e-06
-3.21156e-06 6.23059e-07 6.82428e-06
3.57728e-06 1.47544e-06 7.63678e-06
4.99227e-07 2.83243e-05 1.79275e-05
2.47608e-05 1.37343e-05 1.79187e-05
-2.03288e-05 1.55361e-05 1.74293e-05
1.17873e-06 1.3645e-06 4.45994e-06
-2.064e-05 -1.57287e-05 1.75279e-05
-1.89993e-05 -2.32224e-06 1.59465e-05
-1.95596e-05 -5.58511e-06 1.63326e-05
9.05698e-07 -3.24781e-06 7.00625e-06
-4.36611e-06 -1.97897e-05 1.63222e-05
-7.93745e-06 1.38347e-05 1.51014e-05
1.16577e-06 -1.3042e-06 4.33938e-06
1.19347e-05 -1.12286e-05 1.52925e-05
6.13318e-06 -2.26966e-05 1.68208e-05
-1.45225e-05 1.43557e-05 1.6324e-05
7.92925e-06 1.33215e-05 1.49483e-05
1.7937e-06 8.58757e-07 -4.55233e-06
1.73784e-06 -8.25125e-07 -4.46088e-06
4.31959e-07 1.84965e-06 -4.4952e-06
4.36104e-07 -1.78065e-06 -4.35616e-06
-1.84751e-06 2.09635e-08 -4.42244e-06
-1.1231e-06 -1.30889e-06 -4.15107e-06
-1.15922e-06 1.30681e-06 -4.19985e-06
-2.25134e-05 -7.28782e-06 -1.70002e-05
-2.21968e-05 7.37171e-06 -1.69688e-05
-4.86051e-06 2.28989e-05 -1.69372e-05
-4.85802e-06 -2.3132e-05 -1.69641e-05
1.74215e-05 1.56357e-05 -1.69301e-05
1.75691e-05 -1.55367e-05 -1.69393e-05
2.10739e-05 3.16394e-06 -1.63246e-05
-1.39534e-05 1.71516e-05 -1.64786e-05
-1.35914e-05 -1.67415e-05 -1.64102e-05
7.76798e-06 1.98199e-05 -1.63314e-05
7.68499e-06 -2.03103e-05 -1.64027e-05
2.14727e-05 -3.4438e-06 -1.64004e-05
-2.11031e-05 6.58811e-09 -1.62469e-05
-2.24207e-05 1.09999e-05 -1.74538e-05
-1.87512e-05 9.25486e-06 -1.66273e-05
-1.79831e-05 5.79555e-06 -1.60365e-05
-1.49842e-05 7.44846e-06 -1.54865e-05
-1.42247e-05 4.30779e-06 -1.48298e-05
-1.15328e-05 5.74398e-06 -1.40949e-05
-1.08582e-05 3.06879e-06 -1.33737e-05
-8.40063e-06 4.30494e-06 -1.24045e-05
-9.05896e-06 7.01352e-06 -1.34565e-05
-6.20421e-06 5.4886e-06 -1.16891e-05
-6.82842e-06 8.24958e-06 -1.30801e-05
-4.28147e-06 6.67502e-06 -1.14506e-05
-4.80009e-06 9.61009e-06 -1.3094e-05
-2.40091e-06 7.99348e-06 -1.1723e-05
-2.8129e-06 1.11674e-05 -1.3475e-05
-4.75419e-07 9.59545e-06 -1.25011e-05
-7.38367e-07 1.29971e-05 -1.41419e-05
1.73111e-06 1.1518e-05 -1.35351e-05
-5.53478e-06 1.27006e-05 -1.44371e-05
1.68511e-06 8.22411e-06 -1.17477e-05
4.00425e-06 1.01211e-05 -1.3151e-05
3.70541e-06 7.09807e-06 -1.14783e-05
6.06751e-06 8.96682e-06 -1.31135e-05
5.76692e-06 6.10689e-06 -1.17357e-05
8.35823e-06 8.02046e-06 -1.34921e-05
8.10579e-06 5.19535e-06 -1.25004e-05
1.09542e-05 7.09717e-06 -1.41471e-05
1.07462e-05 4.32287e-06 -1.34992e-05
8.53067e-06 1.10377e-05 -1.44609e-05
7.93783e-06 2.64379e-06 -1.17275e-05
1.06462e-05 1.73723e-06 -1.31041e-05
7.94882e-06 3.58766e-07 -1.14557e-05
1.08066e-05 -7.59126e-07 -1.31242e-05
8.11178e-06 -1.93783e-06 -1.17092e-05
1.10985e-05 -3.31291e-06 -1.3484e-05
8.46988e-06 -4.42406e-06 -1.24442e-05
1.15039e-05 -6.00299e-06 -1.41095e-05
8.95573e-06 -7.13823e-06 -1.34282e-05
6.14763e-06 -5.49451e-06 -1.16414e-05
6.64461e-06 -8.30101e-06 -1.30184e-05
4.10527e-06 -6.58862e-06 -1.1311e-05
4.52343e-06 -9.55103e-06 -1.29884e-05
2.24233e-06 -7.85842e-06 -1.15975e-05
2.48488e-06 -1.10021e-05 -1.33511e-05
2.25294e-07 -9.37385e-06 -1.23537e-05
3.30019e-07 -1.277e-05 -1.4034e-05
-1.91547e-06 -1.11509e-05 -1.33771e-05
-1.8411e-06 -7.92175e-06 -1.15823e-05
-4.16797e-06 -9.87503e-06 -1.30852e-05
-3.81401e-06 -6.73062e-06 -1.13172e-05
-6.34573e-06 -8.66218e-06 -1.30994e-05
-5.8914e-06 -5.69811e-06 -1.16285e-05
-8.49988e-06 -7.43593e-06 -1.33798e-05
-8.16769e-06 -4.72814e-06 -1.24088e-05
-1.10959e-05 -6.40288e-06 -1.407e-05
-4.37173e-06 -1.31234e-05 -1.44338e-05
-1.0809e-05 -3.65075e-06 -1.34394e-05
7.22625e-06 -1.1373e-05 -1.42731e-05
-7.74184e-06 1.98272e-06 -1.1493e-05
-1.32164e-05 1.03508e-06 -1.42111e-05
1.72915e-06 1.50831e-05 -1.49524e-05
1.37683e-05 4.62247e-07 -1.4388e-05
1.38434e-05 6.10022e-06 -1.49319e-05
-9.69424e-06 1.01965e-05 -1.45327e-05
-5.41611e-06 -3.19771e-06 -1.01823e-05
-1.17138e-05 -9.29752e-06 -1.48894e-05
1.18826e-05 -8.76038e-06 -1.47873e-05
1.47821e-05 -7.47375e-06 -1.54036e-05
-1.396e-05 -5.244e-06 -1.48619e-05
2.79588e-06 -1.45164e-05 -1.47964e-05
4.2457e-07 -1.64997e-05 -1.5398e-05
3.5185e-06 4.39702e-06 -9.58127e-06
1.40109e-05 9.29924e-06 -1.54918e-05
1.79311e-05 8.14512e-06 -1.63008e-05
-1.56758e-05 1.13956e-05 -1.62337e-05
-1.09411e-06 1.67694e-05 -1.54955e-05
1.90689e-06 1.9622e-05 -1.63112e-05
-2.09191e-06 5.22017e-06 -9.59777e-06
5.55405e-06 -7.84618e-07 -9.59432e-06
3.58602e-06 -3.68363e-06 -9.08214e-06
-1.77967e-06 -5.17867e-06 -9.44978e-06
-2.24692e-05 -1.1011e-05 -1.74746e-05
-1.87985e-05 -9.2416e-06 -1.66513e-05
2.11482e-05 1.4165e-05 -1.75058e-05
2.07542e-05 -1.43179e-05 -1.74358e-05
-1.76463e-06 -2.5447e-05 -1.75112e-05
-1.68215e-06 2.5411e-05 -1.75158e-05
1.77133e-05 -1.19071e-05 -1.66874e-05
2.06461e-05 -1.07513e-05 -1.71162e-05
3.77571e-06 -1.89855e-05 -1.61397e-05
7.68543e-07 -2.03462e-05 -1.64831e-05
-1.94055e-05 -1.26508e-05 -1.71434e-05
-1.37314e-05 -2.30697e-06 -1.44721e-05
-1.6593e-05 -3.7015e-06 -1.54778e-05
-1.0376e-05 -1.09641e-06 -1.29523e-05
2.44525e-05 1.1073e-05 -1.76519e-05
2.5498e-05 -1.24035e-05 -1.78484e-05
2.64927e-06 2.67265e-05 -1.76607e-05
2.52103e-06 -2.64141e-05 -1.76296e-05
3.33951e-06 -2.30323e-05 -1.70293e-05
-2.05393e-06 -1.83202e-05 -1.59511e-05
4.05912e-06 2.37918e-05 -1.71306e-05
2.26146e-05 8.37942e-06 -1.71195e-05
4.61369e-06 1.73137e-05 -1.57275e-05
1.44273e-05 -1.31197e-05 -1.61376e-05
-1.5788e-05 -1.09849e-05 -1.62148e-05
-1.68001e-05 -3.81435e-07 -1.53776e-05
1.73062e-05 4.68757e-06 -1.57259e-05
6.55228e-08 -6.38742e-06 -1.02676e-05
1.74174e-06 -4.84854e-06 -9.09265e-06
5.85056e-06 -2.93556e-06 -1.03783e-05
-2.14446e-05 3.75058e-06 -1.64591e-05
5.72946e-06 -1.62748e-05 -1.5508e-05
9.08362e-06 -1.74993e-05 -1.59977e-05
1.75725e-05 1.18819e-05 -1.66725e-05
1.39945e-05 -1.63825e-05 -1.64015e-05
1.07402e-05 -1.37892e-05 -1.55503e-05
-3.54803e-06 -4.22026e-06 -9.50093e-06
5.3992e-06 1.13851e-06 -9.49921e-06
5.21813e-06 3.22293e-06 -1.00474e-05
-1.7498e-06 -2.83549e-05 -1.78771e-05
1.89209e-06 5.29897e-06 -9.58461e-06
-1.13825e-07 6.1051e-06 -1.00389e-05
-3.78498e-06 4.12781e-06 -9.57857e-06
-5.62277e-06 3.03423e-06 -1.02854e-05
-5.16555e-06 1.04069e-06 -9.21377e-06
-7.52736e-06 -6.17402e-08 -1.11726e-05
-4.33444e-06 -8.1029e-07 -8.382e-06
-3.10863e-06 1.87236e-06 -7.37419e-06
-2.20815e-05 -3.60782e-06 -1.6516e-05
2.34066e-05 -1.56882e-05 -1.78363e-05
-1.50722e-06 2.11682e-05 -1.66823e-05
2.1262e-05 -8.45213e-08 -1.6226e-05
1.76224e-05 -1.64683e-06 -1.55817e-05
1.7348e-05 -4.94176e-06 -1.57709e-05
2.18919e-05 -7.45124e-06 -1.69138e-05
-2.31825e-05 -1.42548e-05 -1.78329e-05
1.73249e-05 1.6489e-06 -1.55088e-05
-1.73401e-06 2.84735e-05 -1.78943e-05