# vtk DataFile Version 3.0
vtk output at time 220
ASCII
DATASET UNSTRUCTURED_GRID
POINTS 626 float
-3.68058e-05 0.000978749 0 3.68058e-05 0.000978749 0 -0.000829194 0.00052125 0 
-0.0008235 0.0005 0 -0.000866 0.0004575 0 -0.000866 -0.0004575 0 
-0.0008235 -0.0005 0 -0.000829194 -0.00052125 0 -3.68058e-05 -0.000978749 0 
3.68058e-05 -0.000978749 0 0.000829194 -0.00052125 0 0.000866 -0.0004575 0 
0.000866 0.0004575 0 0.000829194 0.00052125 0 8.5e-05 0 0 
-3.68058e-05 0.000978749 -0.001 3.68058e-05 0.000978749 -0.001 -0.000829194 0.00052125 -0.001 
-0.0008235 0.0005 -0.001 -0.000866 0.0004575 -0.001 -0.000866 -0.0004575 -0.001 
-0.0008235 -0.0005 -0.001 -0.000829194 -0.00052125 -0.001 -3.68058e-05 -0.000978749 -0.001 
3.68058e-05 -0.000978749 -0.001 0.000829194 -0.00052125 -0.001 0.000866 -0.0004575 -0.001 
0.000866 0.0004575 -0.001 0.000829194 0.00052125 -0.001 8.5e-05 0 -0.001 
8.46223e-17 0.0009575 0 -0.000715996 0.000586607 0 -0.000602797 0.000651965 0 
-0.000489599 0.000717321 0 -0.000376401 0.000782678 0 -0.000263202 0.000848036 0 
-0.000150004 0.000913393 0 -0.000835948 0.000469948 0 -0.000866 -0.000326786 0 
-0.000866 -0.000196071 0 -0.000866 -6.53571e-05 0 -0.000866 6.53571e-05 0 
-0.000866 0.000196071 0 -0.000866 0.000326786 0 -0.000835948 -0.000469948 0 
-0.000150004 -0.000913393 0 -0.000263202 -0.000848036 0 -0.000376401 -0.000782678 0 
-0.000489599 -0.000717321 0 -0.000602797 -0.000651965 0 -0.000715996 -0.000586607 0 
8.47648e-17 -0.0009575 0 0.000715996 -0.000586607 0 0.000602797 -0.000651965 0 
0.000489599 -0.000717321 0 0.000376401 -0.000782678 0 0.000263202 -0.000848036 0 
0.000150004 -0.000913393 0 0.000829194 -0.00047875 0 0.000866 0.000326786 0 
0.000866 0.000196071 0 0.000866 6.53571e-05 0 0.000866 -6.53571e-05 0 
0.000866 -0.000196071 0 0.000866 -0.000326786 0 0.000829194 0.00047875 0 
0.000150004 0.000913393 0 0.000263202 0.000848036 0 0.000376401 0.000782678 0 
0.000489599 0.000717321 0 0.000602797 0.000651965 0 0.000715996 0.000586607 0 
5.29966e-05 6.64557e-05 0 -1.89143e-05 8.28689e-05 0 -7.65824e-05 3.68801e-05 0 
-7.65824e-05 -3.68801e-05 0 -1.89143e-05 -8.28689e-05 0 5.29966e-05 -6.64557e-05 0 
8.46223e-17 0.0009575 -0.001 -0.000715996 0.000586607 -0.001 -0.000602797 0.000651965 -0.001 
-0.000489599 0.000717321 -0.001 -0.000376401 0.000782678 -0.001 -0.000263202 0.000848036 -0.001 
-0.000150004 0.000913393 -0.001 -0.000835948 0.000469948 -0.001 -0.000866 -0.000326786 -0.001 
-0.000866 -0.000196071 -0.001 -0.000866 -6.53571e-05 -0.001 -0.000866 6.53571e-05 -0.001 
-0.000866 0.000196071 -0.001 -0.000866 0.000326786 -0.001 -0.000835948 -0.000469948 -0.001 
-0.000150004 -0.000913393 -0.001 -0.000263202 -0.000848036 -0.001 -0.000376401 -0.000782678 -0.001 
-0.000489599 -0.000717321 -0.001 -0.000602797 -0.000651965 -0.001 -0.000715996 -0.000586607 -0.001 
8.47648e-17 -0.0009575 -0.001 0.000715996 -0.000586607 -0.001 0.000602797 -0.000651965 -0.001 
0.000489599 -0.000717321 -0.001 0.000376401 -0.000782678 -0.001 0.000263202 -0.000848036 -0.001 
0.000150004 -0.000913393 -0.001 0.000829194 -0.00047875 -0.001 0.000866 0.000326786 -0.001 
0.000866 0.000196071 -0.001 0.000866 6.53571e-05 -0.001 0.000866 -6.53571e-05 -0.001 
0.000866 -0.000196071 -0.001 0.000866 -0.000326786 -0.001 0.000829194 0.00047875 -0.001 
0.000150004 0.000913393 -0.001 0.000263202 0.000848036 -0.001 0.000376401 0.000782678 -0.001 
0.000489599 0.000717321 -0.001 0.000602797 0.000651965 -0.001 0.000715996 0.000586607 -0.001 
5.29966e-05 6.64557e-05 -0.001 -1.89143e-05 8.28689e-05 -0.001 -7.65824e-05 3.68801e-05 -0.001 
-7.65824e-05 -3.68801e-05 -0.001 -1.89143e-05 -8.28689e-05 -0.001 5.29966e-05 -6.64557e-05 -0.001 
0.000131234 6.38474e-05 0 0.00012964 -6.2443e-05 0 3.13827e-05 0.0001394 0 
3.12554e-05 -0.000136939 0 -0.000140461 8.25467e-19 0 -8.90565e-05 -0.000102707 0 
-9.04142e-05 0.000102872 0 -0.000765769 -0.00025965 0 -0.000756873 0.000262774 0 
-0.00015609 0.000787505 0 -0.000155807 -0.00079355 0 0.000605069 0.000528035 0 
0.000608694 -0.00052497 0 0.000744069 0.000116929 0 -0.000494418 0.000596218 0 
-0.000483866 -0.000584648 0 0.000269496 0.000702219 0 0.000263201 -0.000717324 0 
0.000754429 -0.000127825 0 -0.000748858 5.84659e-07 0 -0.000747838 0.000373886 0 
-0.0006542 0.000324842 0 -0.000645137 0.000210123 0 -0.000550884 0.000274171 0 
-0.000538857 0.000163195 0 -0.00045062 0.000224461 0 -0.000438393 0.000123907 0 
-0.000354088 0.000181668 0 -0.000363908 0.000282171 0 -0.000270361 0.000239477 0 
-0.000279138 0.000337653 0 -0.000188888 0.000294791 0 -0.000196448 0.000393271 0 
-0.000104767 0.000348259 0 -0.000113332 0.000449012 0 -2.01066e-05 0.000403223 0 
-2.89189e-05 0.000507105 0 6.9524e-05 0.000461596 0 -0.000213644 0.000490203 0 
7.33757e-05 0.000357726 0 0.000163331 0.00041299 0 0.000163359 0.000313022 0 
0.000248077 0.000366368 0 0.000250914 0.000265758 0 0.000335709 0.000322266 0 
0.000340555 0.000218148 0 0.000427299 0.000276717 0 0.000431508 0.000173093 0 
0.000328731 0.000425633 0 0.00034586 0.000114823 0 0.000435362 7.05241e-05 0 
0.000350892 1.5455e-05 0 0.000441547 -3.11896e-05 0 0.000353547 -8.47783e-05 0 
0.000445767 -0.000132964 0 0.000356135 -0.000186358 0 0.000449094 -0.000234674 0 
0.000359978 -0.000287876 0 0.00026856 -0.000240545 0 0.000271895 -0.000341045 0 
0.000181792 -0.00029305 0 0.00018533 -0.000392851 0 9.75701e-05 -0.00034483 0 
9.98764e-05 -0.000444884 0 8.75116e-06 -0.000396343 0 1.20916e-05 -0.000500496 0 
-7.83929e-05 -0.000449843 0 -8.1471e-05 -0.000347249 0 -0.000171566 -0.000403733 0 
-0.000169889 -0.000298891 0 -0.000259867 -0.000354132 0 -0.000257696 -0.000249137 0 
-0.00034313 -0.000299896 0 -0.000344514 -0.000199127 0 -0.000434309 -0.000250039 0 
-0.000169832 -0.000505815 0 -0.000435227 -0.000146227 0 0.000280331 -0.000442424 0 
-0.000340889 8.76793e-05 0 -0.000515252 4.06198e-05 0 6.50491e-05 0.000568253 0 
0.00053278 1.74743e-05 0 0.000522071 0.000229831 0 -0.00037162 0.000391659 0 
-0.000255272 -0.000150439 0 -0.000442893 -0.000350705 0 0.000450067 -0.000332559 0 
0.000545175 -0.000276306 0 -0.000527797 -0.000197598 0 0.000105306 -0.000551033 0 
1.45836e-05 -0.000609147 0 0.00017145 0.000214453 0 0.000515525 0.000341711 0 
0.000636086 0.000290368 0 -0.000558657 0.000404468 0 -4.01232e-05 0.000616718 0 
6.60192e-05 0.000696422 0 -0.000101806 0.0002546 0 0.000271142 -3.88908e-05 0 
0.000179455 -0.00018534 0 -8.79553e-05 -0.000254307 0 -0.000749267 -0.000373451 0 
-0.000655941 -0.000323397 0 0.000709746 0.000466718 0 0.000698426 -0.000473086 0 
-5.25801e-05 -0.00084886 0 -4.93005e-05 0.000848038 0 0.000617396 -0.000413362 0 
0.000702056 -0.000369817 0 0.000131459 -0.000679171 0 2.48171e-05 -0.000715924 0 
-0.000664217 -0.00042729 0 -0.000528828 -8.80444e-05 0 -0.000611101 -0.000136672 0 
-0.000426972 -4.45841e-05 0 0.000800669 0.000378216 0 0.000821144 -0.000415062 0 
7.2799e-05 0.00088254 0 6.81831e-05 -0.00087503 0 0.000104963 -0.000788946 0 
-7.40696e-05 -0.000660054 0 0.000126061 0.000809943 0 0.000764361 0.000295682 0 
0.000166862 0.000630623 0 0.000516462 -0.00046707 0 -0.000563585 -0.000389606 0 
-0.000622598 -1.40238e-05 0 0.000629891 0.000171529 0 2.5614e-06 -0.000299794 0 
8.6901e-05 -0.00024329 0 0.000272045 -0.000136982 0 -0.00075148 0.000138321 0 
0.000209366 -0.000599589 0 0.000324913 -0.000630055 0 0.000614044 0.00041245 0 
0.00049651 -0.000573327 0 0.000394822 -0.000507321 0 -0.000173714 -0.000206698 0 
0.000264897 5.63722e-05 0 0.000247997 0.000152811 0 -4.63327e-05 -0.000920208 0 
9.18688e-05 0.000258626 0 -5.54111e-06 0.000290558 0 -0.000184219 0.000201484 0 
-0.000263559 0.000142267 0 -0.000256427 5.13624e-05 0 -0.000336894 -2.06179e-06 0 
-0.000228499 -4.2388e-05 0 -0.00017589 0.000106626 0 -0.000769947 -0.000133367 0 
0.000767591 -0.000500293 0 -5.05874e-05 0.000737978 0 0.000754456 -3.51771e-06 0 
0.00064691 -6.15298e-05 0 0.000630483 -0.00018134 0 0.000749187 -0.000265543 0 
-0.000760805 -0.000462521 0 0.000638155 6.09315e-05 0 -4.46661e-05 0.000922995 0 
-2.37945e-05 0.000207237 0 0.000776979 0.000500181 0 -0.000605691 0.000527596 0 
-0.000377914 -0.000653727 0 -0.000372325 -0.000526022 0 -0.000275829 -0.000589621 0 
-0.000254285 -0.000710579 0 -0.000379307 0.000656222 0 -0.000379818 0.00052718 0 
-0.000266817 0.000721555 0 -0.000150544 0.000668174 0 0.000381963 0.00065079 0 
0.000493113 0.000590432 0 0.000505439 0.000463708 0 -0.000269094 0.000596608 0 
0.000385815 0.000532045 0 0.000283599 0.0005899 0 -0.000176405 -0.000108505 0 
-0.000278769 -0.000475415 0 0.000185395 2.33014e-06 0 0.000186773 0.000517571 0 
0.000540032 -8.68444e-05 0 -0.000600694 -0.000514877 0 -0.00063703 8.98033e-05 0 
-0.000459677 0.000335729 0 -0.000338836 -0.000100751 0 -0.000457327 0.000432721 0 
-8.72007e-06 -0.000210238 0 0.000156073 0.000129496 0 -7.70692e-05 -0.000555049 0 
0.00036091 -0.000389728 0 0.000531628 0.000120564 0 -0.000285451 0.000435562 0 
0.000192719 -0.000494604 0 0.00041642 0.00039368 0 -0.000135943 0.000554637 0 
-0.000170665 -0.000610079 0 -0.000666304 0.000434981 0 -0.000758736 0.000479231 0 
-0.000470189 -0.000458901 0 0.000203433 -8.59809e-05 0 0.000101846 0.000170114 0 
-0.00035513 -0.00040726 0 0.000100184 -0.000165831 0 2.96286e-05 0.00081537 0 
0.000720946 0.000381836 0 -0.000539809 -0.000292001 0 0.00052211 -0.000182426 0 
-6.41339e-05 -0.000753908 0 0.000638039 -0.000299861 0 -0.000605136 -0.000230182 0 
-3.41638e-05 -0.000145561 0 -0.000104037 0.000172396 0 -0.000808575 -0.00042774 0 
-0.000807207 -0.000465052 0 -0.00080817 0.000429771 0 -0.000806589 0.000469738 0 
-9.50634e-05 -0.000178909 0 0.000247777 0.000445058 0 1.48293e-05 -0.000814201 0 
-4.11555e-05 0.000140955 0 0.000276104 -0.000536845 0 0.000765969 -0.000436638 0 
0.000780871 -0.000362769 0 0.000424176 -0.000642018 0 0.00053413 -0.000368009 0 
-0.000416333 4.17911e-05 0 -0.000133891 -6.23822e-05 0 4.2574e-05 0.000206312 0 
[...]
POINT_DATA 626
VECTORS displacement float
-1.74038e-06 3.08982e-05 1.80207e-05
1.73209e-06 3.09172e-05 1.80657e-05
-2.59393e-05 1.69616e-05 1.80527e-05
-2.57941e-05 1.60037e-05 1.80173e-05
-2.76701e-05 1.39478e-05 1.80347e-05
-2.76631e-05 -1.3994e-05 1.80601e-05
-2.57654e-05 -1.60418e-05 1.80714e-05
-2.59355e-05 -1.69797e-05 1.81325e-05
-1.67397e-06 -3.0902e-05 1.80171e-05
1.75187e-06 -3.09035e-05 1.80675e-05
2.58967e-05 -1.69495e-05 1.80092e-05
2.76665e-05 -1.39117e-05 1.80091e-05
2.7622e-05 1.39644e-05 1.80572e-05
2.58681e-05 1.69618e-05 1.80117e-05
0 0 0
-1.74038e-06 3.08982e-05 -1.80207e-05
1.73209e-06 3.09172e-05 -1.80657e-05
-2.59393e-05 1.69616e-05 -1.80527e-05
-2.57941e-05 1.60037e-05 -1.80173e-05
-2.76701e-05 1.39478e-05 -1.80347e-05
-2.76631e-05 -1.3994e-05 -1.80601e-05
-2.57654e-05 -1.60418e-05 -1.80714e-05
-2.59355e-05 -1.69797e-05 -1.81325e-05
-1.67397e-06 -3.0902e-05 -1.80171e-05
1.75187e-06 -3.09035e-05 -1.80675e-05
2.58967e-05 -1.69495e-05 -1.80092e-05
2.76665e-05 -1.39117e-05 -1.80091e-05
2.7622e-05 1.39644e-05 -1.80572e-05
2.58681e-05 1.69618e-05 -1.80117e-05
0 0 0
2.48223e-08 3.00997e-05 1.79999e-05
-2.11033e-05 1.86783e-05 1.75167e-05
-1.72025e-05 1.97983e-05 1.68893e-05
-1.39825e-05 2.10171e-05 1.65243e-05
-1.1187e-05 2.26251e-05 1.65182e-05
-8.50847e-06 2.47891e-05 1.68699e-05
-5.55712e-06 2.75724e-05 1.75044e-05
-2.64018e-05 1.46526e-05 1.79992e-05
-2.67205e-05 -8.9961e-06 1.75442e-05
-2.57605e-05 -5.02715e-06 1.68944e-05
-2.52101e-05 -1.63355e-06 1.65408e-05
-2.5213e-05 1.60523e-06 1.65437e-05
-2.57527e-05 5.01455e-06 1.68926e-05
-2.67068e-05 8.96922e-06 1.75308e-05
-2.63887e-05 -1.46988e-05 1.80279e-05
-5.53041e-06 -2.75869e-05 1.74966e-05
-8.46108e-06 -2.47981e-05 1.68692e-05
-1.11503e-05 -2.26445e-05 1.65255e-05
-1.39462e-05 -2.10501e-05 1.65289e-05
-1.71849e-05 -1.98336e-05 1.69051e-05
-2.10968e-05 -1.8715e-05 1.75291e-05
8.96388e-08 -3.00845e-05 1.79951e-05
2.10867e-05 -1.85909e-05 1.74785e-05
1.72146e-05 -1.97269e-05 1.68414e-05
1.40094e-05 -2.09742e-05 1.64811e-05
1.12052e-05 -2.25534e-05 1.65155e-05
8.5655e-06 -2.47365e-05 1.68428e-05
5.6438e-06 -2.75771e-05 1.75019e-05
2.60772e-05 -1.50324e-05 1.79941e-05
2.66688e-05 8.92315e-06 1.74685e-05
2.56765e-05 5.04123e-06 1.68769e-05
2.51623e-05 1.62069e-06 1.64926e-05
2.51594e-05 -1.59683e-06 1.64909e-05
2.57051e-05 -4.98912e-06 1.68569e-05
2.66509e-05 -8.90193e-06 1.74767e-05
2.60603e-05 1.50335e-05 1.79911e-05
5.62228e-06 2.75685e-05 1.74766e-05
8.49303e-06 2.47631e-05 1.68797e-05
1.11972e-05 2.26014e-05 1.64988e-05
1.39801e-05 2.09851e-05 1.64942e-05
1.71917e-05 1.97581e-05 1.68536e-05
2.10777e-05 1.86005e-05 1.74923e-05
0 0 0
0 0 0
0 0 0
0 0 0
0 0 0
0 0 0
2.48223e-08 3.00997e-05 -1.79999e-05
-2.11033e-05 1.86783e-05 -1.75167e-05
-1.72025e-05 1.97983e-05 -1.68893e-05
-1.39825e-05 2.10171e-05 -1.65243e-05
-1.1187e-05 2.26251e-05 -1.65182e-05
-8.50847e-06 2.47891e-05 -1.68699e-05
-5.55712e-06 2.75724e-05 -1.75044e-05
-2.64018e-05 1.46526e-05 -1.79992e-05
-2.67205e-05 -8.9961e-06 -1.75442e-05
-2.57605e-05 -5.02715e-06 -1.68944e-05
-2.52101e-05 -1.63355e-06 -1.65408e-05
-2.5213e-05 1.60523e-06 -1.65437e-05
-2.57527e-05 5.01455e-06 -1.68926e-05
-2.67068e-05 8.96922e-06 -1.75308e-05
-2.63887e-05 -1.46988e-05 -1.80279e-05
-5.53041e-06 -2.75869e-05 -1.74966e-05
-8.46108e-06 -2.47981e-05 -1.68692e-05
-1.11503e-05 -2.26445e-05 -1.65255e-05
-1.39462e-05 -2.10501e-05 -1.65289e-05
-1.71849e-05 -1.98336e-05 -1.69051e-05
-2.10968e-05 -1.8715e-05 -1.75291e-05
8.96388e-08 -3.00845e-05 -1.79951e-05
2.10867e-05 -1.85909e-05 -1.74785e-05
1.72146e-05 -1.97269e-05 -1.68414e-05
1.40094e-05 -2.09742e-05 -1.64811e-05
1.12052e-05 -2.25534e-05 -1.65155e-05
8.5655e-06 -2.47365e-05 -1.68428e-05
5.6438e-06 -2.75771e-05 -1.75019e-05
2.60772e-05 -1.50324e-05 -1.79941e-05
2.66688e-05 8.92315e-06 -1.74685e-05
2.56765e-05 5.04123e-06 -1.68769e-05
2.51623e-05 1.62069e-06 -1.64926e-05
2.51594e-05 -1.59683e-06 -1.64909e-05
2.57051e-05 -4.98912e-06 -1.68569e-05
2.66509e-05 -8.90193e-06 -1.74767e-05
2.60603e-05 1.50335e-05 -1.79911e-05
5.62228e-06 2.75685e-05 -1.74766e-05
8.49303e-06 2.47631e-05 -1.68797e-05
1.11972e-05 2.26014e-05 -1.64988e-05
1.39801e-05 2.09851e-05 -1.64942e-05
1.71917e-05 1.97581e-05 -1.68536e-05
2.10777e-05 1.86005e-05 -1.74923e-05
0 0 0
0 0 0
0 0 0
0 0 0
0 0 0
0 0 0
1.79131e-06 8.57617e-07 4.54539e-06
1.73553e-06 -8.24031e-07 4.45409e-06
4.31384e-07 1.8472e-06 4.48838e-06
4.35525e-07 -1.77831e-06 4.34956e-06
-1.84507e-06 2.09298e-08 4.41573e-06
-1.12162e-06 -1.30717e-06 4.14479e-06
-1.1577e-06 1.30509e-06 4.1935e-06
-2.24733e-05 -7.27507e-06 1.69682e-05
-2.21572e-05 7.35879e-06 1.69369e-05
-4.85166e-06 2.28582e-05 1.69054e-05
-4.84915e-06 -2.30909e-05 1.69322e-05
1.73907e-05 1.56078e-05 1.68982e-05
1.7538e-05 -1.55089e-05 1.69075e-05
2.10369e-05 3.1585e-06 1.62943e-05
-1.39289e-05 1.71212e-05 1.64479e-05
-1.35676e-05 -1.6712e-05 1.63796e-05
7.75422e-06 1.97851e-05 1.63011e-05
7.67134e-06 -2.02746e-05 1.63722e-05
2.14349e-05 -3.43786e-06 1.63699e-05
-2.10661e-05 6.57055e-09 1.62167e-05
-2.23804e-05 1.09803e-05 1.74207e-05
-1.87181e-05 9.23853e-06 1.65962e-05
-1.79517e-05 5.78546e-06 1.60068e-05
-1.49583e-05 7.43557e-06 1.54582e-05
-1.42004e-05 4.30043e-06 1.4803e-05
-1.15134e-05 5.7343e-06 1.40697e-05
-1.08402e-05 3.06368e-06 1.33501e-05
-8.38694e-06 4.29793e-06 1.2383e-05
-9.04388e-06 7.00186e-06 1.34327e-05
-6.19425e-06 5.47979e-06 1.16691e-05
-6.81714e-06 8.23597e-06 1.30571e-05
-4.27463e-06 6.66437e-06 1.14311e-05
-4.79217e-06 9.59423e-06 1.30711e-05
-2.39706e-06 7.98064e-06 1.1703e-05
-2.80823e-06 1.11488e-05 1.34512e-05
-4.74645e-07 9.57979e-06 1.24794e-05
-7.37127e-07 1.29752e-05 1.41166e-05
1.72823e-06 1.14988e-05 1.35112e-05
-5.52542e-06 1.26791e-05 1.44111e-05
1.6824e-06 8.2109e-06 1.17276e-05
3.99763e-06 1.01043e-05 1.3128e-05
3.6995e-06 7.08674e-06 1.14588e-05
6.05749e-06 8.95202e-06 1.30905e-05
5.75766e-06 6.09709e-06 1.17156e-05
8.34431e-06 8.00712e-06 1.34683e-05
8.09257e-06 5.18688e-06 1.24788e-05
1.09357e-05 7.08521e-06 1.41218e-05
1.07283e-05 4.31567e-06 1.34753e-05
8.51622e-06 1.1019e-05 1.44349e-05
7.92509e-06 2.63954e-06 1.17075e-05
1.06286e-05 1.73436e-06 1.30812e-05
7.93614e-06 3.58193e-07 1.14362e-05
1.07888e-05 -7.57866e-07 1.31012e-05
8.09877e-06 -1.93472e-06 1.16892e-05
1.108e-05 -3.30738e-06 1.34602e-05
8.45608e-06 -4.41684e-06 1.24226e-05
1.14845e-05 -5.99287e-06 1.40843e-05
8.94084e-06 -7.12637e-06 1.34045e-05
6.13778e-06 -5.48571e-06 1.16215e-05
6.63366e-06 -8.28733e-06 1.29956e-05
4.09875e-06 -6.57815e-06 1.12919e-05
4.51599e-06 -9.53531e-06 1.29657e-05
2.23874e-06 -7.84584e-06 1.15777e-05
2.48076e-06 -1.09838e-05 1.33276e-05
2.24927e-07 -9.35859e-06 1.23323e-05
3.29463e-07 -1.27485e-05 1.40089e-05
-1.9123e-06 -1.11324e-05 1.33536e-05
-1.83816e-06 -7.90907e-06 1.15626e-05
-4.1611e-06 -9.85873e-06 1.30622e-05
-3.80794e-06 -6.71991e-06 1.1298e-05
-6.33526e-06 -8.64788e-06 1.30765e-05
-5.88195e-06 -5.68898e-06 1.16087e-05
-8.48575e-06 -7.42359e-06 1.33562e-05
-8.15438e-06 -4.72044e-06 1.23873e-05
-1.10772e-05 -6.3921e-06 1.40449e-05
-4.36434e-06 -1.31012e-05 1.44079e-05
-1.07911e-05 -3.64467e-06 1.34156e-05
7.21406e-06 -1.13538e-05 1.42476e-05
-7.72947e-06 1.97955e-06 1.14735e-05
-1.31941e-05 1.03333e-06 1.41857e-05
1.72619e-06 1.50573e-05 1.49253e-05
1.3745e-05 4.61465e-07 1.43621e-05
1.38198e-05 6.08978e-06 1.49048e-05
-9.67778e-06 1.01792e-05 1.45065e-05
-5.40769e-06 -3.19275e-06 1.01654e-05
-1.16938e-05 -9.28162e-06 1.48624e-05
1.18623e-05 -8.74543e-06 1.47606e-05
1.47565e-05 -7.46084e-06 1.53754e-05
-1.39361e-05 -5.23503e-06 1.48349e-05
2.79111e-06 -1.44917e-05 1.47696e-05
4.23833e-07 -1.64712e-05 1.53698e-05
3.51312e-06 4.39029e-06 9.56553e-06
1.39866e-05 9.28316e-06 1.54634e-05
1.78997e-05 8.13086e-06 1.62705e-05
-1.56483e-05 1.13756e-05 1.62036e-05
-1.09222e-06 1.67404e-05 1.54671e-05
1.90351e-06 1.95876e-05 1.62809e-05
-2.0887e-06 5.21219e-06 9.582e-06
5.54556e-06 -7.83418e-07 9.57857e-06
3.5806e-06 -3.67806e-06 9.06736e-06
-1.77696e-06 -5.17077e-06 9.43429e-06
-2.24288e-05 -1.09914e-05 1.74414e-05
-1.87653e-05 -9.22531e-06 1.66202e-05
2.11103e-05 1.41395e-05 1.74726e-05
2.0717e-05 -1.4292e-05 1.74028e-05
-1.76131e-06 -2.54013e-05 1.74779e-05
-1.679e-06 2.53654e-05 1.74826e-05
1.76821e-05 -1.1886e-05 1.66562e-05
2.06093e-05 -1.07322e-05 1.7084e-05
3.76906e-06 -1.89523e-05 1.61097e-05
7.67165e-07 -2.03104e-05 1.64524e-05
-1.93709e-05 -1.26281e-05 1.71111e-05
-1.37081e-05 -2.30305e-06 1.44461e-05
-1.65644e-05 -3.69512e-06 1.54494e-05
-1.03589e-05 -1.0946e-06 1.29297e-05
2.44082e-05 1.10533e-05 1.76183e-05
2.54516e-05 -1.23812e-05 1.78143e-05
2.64419e-06 2.66782e-05 1.76271e-05
2.5162e-06 -2.63665e-05 1.75961e-05
3.33341e-06 -2.29914e-05 1.69973e-05
-2.05034e-06 -1.82883e-05 1.59217e-05
4.05163e-06 2.37494e-05 1.70983e-05
2.25741e-05 8.3647e-06 1.70872e-05
4.60565e-06 1.72836e-05 1.56986e-05
1.44021e-05 -1.30967e-05 1.61077e-05
-1.57603e-05 -1.09657e-05 1.61847e-05
-1.67711e-05 -3.80786e-07 1.53495e-05
1.72762e-05 4.67945e-06 1.5697e-05
6.5421e-08 -6.37748e-06 1.02505e-05
1.73911e-06 -4.8412e-06 9.07784e-06
5.84144e-06 -2.93098e-06 1.03611e-05
-2.14068e-05 3.74409e-06 1.64284e-05
5.71955e-06 -1.62466e-05 1.54795e-05
9.06776e-06 -1.74688e-05 1.59682e-05
1.75414e-05 1.18609e-05 1.66413e-05
1.39699e-05 -1.63536e-05 1.63709e-05
1.07216e-05 -1.37654e-05 1.55218e-05
-3.5426e-06 -4.21381e-06 9.48535e-06
5.39097e-06 1.13678e-06 9.48364e-06
5.21007e-06 3.21794e-06 1.00308e-05
-1.74638e-06 -2.83035e-05 1.78429e-05
1.88919e-06 5.29086e-06 9.56886e-06
-1.13651e-07 6.09566e-06 1.00223e-05
-3.77918e-06 4.12149e-06 9.56284e-06
-5.61402e-06 3.02951e-06 1.02683e-05
-5.1577e-06 1.0391e-06 9.19872e-06
-7.51543e-06 -6.16398e-08 1.11537e-05
-4.32802e-06 -8.09095e-07 8.36855e-06
-3.10413e-06 1.86965e-06 7.36252e-06
-2.20425e-05 -3.60162e-06 1.64852e-05
2.33642e-05 -1.56595e-05 1.78023e-05
-1.50452e-06 2.11308e-05 1.6651e-05
2.12247e-05 -8.43712e-08 1.61959e-05
1.75919e-05 -1.64399e-06 1.55531e-05
1.73179e-05 -4.93319e-06 1.57418e-05
2.18529e-05 -7.43818e-06 1.6882e-05
-2.31406e-05 -1.42289e-05 1.77989e-05
1.7295e-05 1.64606e-06 1.54804e-05
-1.73063e-06 2.84218e-05 1.78601e-05
-4.21469e-07 3.67811e-06 7.48354e-06
2.37293e-05 1.57138e-05 1.78506e-05
-1.74666e-05 1.56145e-05 1.69432e-05
-1.06078e-05 -1.8434e-05 1.62251e-05
-1.00823e-05 -1.43177e-05 1.55433e-05
-7.4949e-06 -1.60673e-05 1.55936e-05
-7.30927e-06 -2.00855e-05 1.6365e-05
-1.06859e-05 1.8503e-05 1.62368e-05
-1.03296e-05 1.43594e-05 1.55909e-05
-7.75896e-06 2.04567e-05 1.64138e-05
-4.2456e-06 1.85775e-05 1.60235e-05
1.0741e-05 1.83136e-05 1.61963e-05
1.38675e-05 1.69053e-05 1.64006e-05
1.40177e-05 1.29504e-05 1.60218e-05
-7.34895e-06 1.62604e-05 1.561e-05
1.05071e-05 1.45221e-05 1.56167e-05
7.73546e-06 1.60647e-05 1.55855e-05
-3.11198e-06 -1.89604e-06 7.38159e-06
-7.24544e-06 -1.24011e-05 1.4599e-05
3.00446e-06 4.03021e-08 6.5908e-06
4.86438e-06 1.35e-05 1.4592e-05
1.40524e-05 -2.25658e-06 1.45444e-05
-1.72595e-05 -1.51898e-05 1.69139e-05
-1.73367e-05 2.41617e-06 1.55694e-05
-1.2184e-05 8.89683e-06 1.49166e-05
-7.69344e-06 -2.2889e-06 1.15352e-05
-1.24285e-05 1.17924e-05 1.55117e-05
-1.42532e-07 -3.74882e-06 7.54233e-06
2.72633e-06 2.26884e-06 7.2406e-06
-2.00049e-06 -1.46257e-05 1.47815e-05
9.3494e-06 -1.00514e-05 1.43638e-05
1.38375e-05 3.1525e-06 1.45401e-05
-7.32779e-06 1.11807e-05 1.4235e-05
4.98886e-06 -1.27534e-05 1.43437e-05
1.10132e-05 1.04129e-05 1.48928e-05
-3.59037e-06 1.46604e-05 1.48812e-05
-4.62753e-06 -1.65884e-05 1.55206e-05
-1.94727e-05 1.28696e-05 1.71292e-05
-2.30855e-05 1.48314e-05 1.78096e-05
-1.28828e-05 -1.26643e-05 1.57836e-05
3.75535e-06 -1.58383e-06 7.89448e-06
1.76189e-06 2.91812e-06 7.0734e-06
-9.21499e-06 -1.05917e-05 1.45059e-05
1.7253e-06 -2.81915e-06 6.92029e-06
9.92877e-07 2.40742e-05 1.7276e-05
2.13301e-05 1.11741e-05 1.72662e-05
-1.46396e-05 -7.93979e-06 1.54572e-05
1.3685e-05 -4.77825e-06 1.46644e-05
-1.90647e-06 -2.17248e-05 1.67715e-05
1.8029e-05 -8.40447e-06 1.63106e-05
-1.66502e-05 -6.31771e-06 1.57536e-05
-4.32315e-07 -1.91973e-06 4.79122e-06
-1.80279e-06 2.99117e-06 7.16598e-06
-2.50069e-05 -1.29586e-05 1.78883e-05
-2.50819e-05 -1.44811e-05 1.79679e-05
-2.50001e-05 1.30104e-05 1.78721e-05
-2.50727e-05 1.46235e-05 1.7948e-05
-1.6461e-06 -3.12039e-06 7.19866e-06
6.31743e-06 1.13495e-05 1.40517e-05
5.32718e-07 -2.40435e-05 1.72698e-05
-5.22071e-07 1.80711e-06 4.638e-06
7.39489e-06 -1.43193e-05 1.51251e-05
2.32612e-05 -1.31858e-05 1.76953e-05
2.35905e-05 -1.0519e-05 1.74579e-05
1.19676e-05 -1.81793e-05 1.62633e-05
1.47048e-05 -1.01292e-05 1.57668e-05
-1.00108e-05 9.9962e-07 1.27327e-05
-1.73767e-06 -8.14804e-07 4.71632e-06
7.67957e-07 3.70302e-06 7.56126e-06
2.33978e-06 -1.99436e-06 6.54514e-06
2.01214e-05 5.88767e-06 1.64232e-05
5.06113e-06 2.05601e-05 1.64655e-05
3.41454e-07 -2.76304e-05 1.78202e-05
-1.7289e-06 7.08161e-07 4.59937e-06
-3.20696e-06 6.22172e-07 6.81354e-06
3.57207e-06 1.47329e-06 7.62463e-06
4.98244e-07 2.82729e-05 1.78933e-05
2.47158e-05 1.37095e-05 1.78845e-05
-2.02924e-05 1.5508e-05 1.73963e-05
1.17712e-06 1.36265e-06 4.45313e-06
-2.06031e-05 -1.57002e-05 1.74946e-05
-1.89662e-05 -2.31823e-06 1.5917e-05
-1.95252e-05 -5.57538e-06 1.63022e-05
9.04401e-07 -3.24315e-06 6.99519e-06
-4.35837e-06 -1.9755e-05 1.62918e-05
-7.92384e-06 1.3811e-05 1.50739e-05
1.16418e-06 -1.30244e-06 4.33275e-06
1.19141e-05 -1.12092e-05 1.52645e-05
6.12202e-06 -2.26563e-05 1.67893e-05
-1.4497e-05 1.43304e-05 1.62936e-05
7.91568e-06 1.32987e-05 1.49212e-05
1.79131e-06 8.57617e-07 -4.54539e-06
1.73553e-06 -8.24031e-07 -4.45409e-06
4.31384e-07 1.8472e-06 -4.48838e-06
4.35525e-07 -1.77831e-06 -4.34956e-06
-1.84507e-06 2.09298e-08 -4.41573e-06
-1.12162e-06 -1.30717e-06 -4.14479e-06
-1.1577e-06 1.30509e-06 -4.1935e-06
-2.24733e-05 -7.27507e-06 -1.69682e-05
-2.21572e-05 7.35879e-06 -1.69369e-05
-4.85166e-06 2.28582e-05 -1.69054e-05
-4.84915e-06 -2.30909e-05 -1.69322e-05
1.73907e-05 1.56078e-05 -1.68982e-05
1.7538e-05 -1.55089e-05 -1.69075e-05
2.10369e-05 3.1585e-06 -1.62943e-05
-1.39289e-05 1.71212e-05 -1.64479e-05
-1.35676e-05 -1.6712e-05 -1.63796e-05
7.75422e-06 1.97851e-05 -1.63011e-05
7.67134e-06 -2.02746e-05 -1.63722e-05
2.14349e-05 -3.43786e-06 -1.63699e-05
-2.10661e-05 6.57055e-09 -1.62167e-05
-2.23804e-05 1.09803e-05 -1.74207e-05
-1.87181e-05 9.23853e-06 -1.65962e-05
-1.79517e-05 5.78546e-06 -1.60068e-05
-1.49583e-05 7.43557e-06 -1.54582e-05
-1.42004e-05 4.30043e-06 -1.4803e-05
-1.15134e-05 5.7343e-06 -1.40697e-05
-1.08402e-05 3.06368e-06 -1.33501e-05
-8.38694e-06 4.29793e-06 -1.2383e-05
-9.04388e-06 7.00186e-06 -1.34327e-05
-6.19425e-06 5.47979e-06 -1.16691e-05
-6.81714e-06 8.23597e-06 -1.30571e-05
-4.27463e-06 6.66437e-06 -1.14311e-05
-4.79217e-06 9.59423e-06 -1.30711e-05
-2.39706e-06 7.98064e-06 -1.1703e-05
-2.80823e-06 1.11488e-05 -1.34512e-05
-4.74645e-07 9.57979e-06 -1.24794e-05
-7.37127e-07 1.29752e-05 -1.41166e-05
1.72823e-06 1.14988e-05 -1.35112e-05
-5.52542e-06 1.26791e-05 -1.44111e-05
1.6824e-06 8.2109e-06 -1.17276e-05
3.99763e-06 1.01043e-05 -1.3128e-05
3.6995e-06 7.08674e-06 -1.14588e-05
6.05749e-06 8.95202e-06 -1.30905e-05
5.75766e-06 6.09709e-06 -1.17156e-05
8.34431e-06 8.00712e-06 -1.34683e-05
8.09257e-06 5.18688e-06 -1.24788e-05
1.09357e-05 7.08521e-06 -1.41218e-05
1.07283e-05 4.31567e-06 -1.34753e-05
8.51622e-06 1.1019e-05 -1.44349e-05
7.92509e-06 2.63954e-06 -1.17075e-05
1.06286e-05 1.73436e-06 -1.30812e-05
7.93614e-06 3.58193e-07 -1.14362e-05
1.07888e-05 -7.57866e-07 -1.31012e-05
8.09877e-06 -1.93472e-06 -1.16892e-05
1.108e-05 -3.30738e-06 -1.34602e-05
8.45608e-06 -4.41684e-06 -1.24226e-05
1.14845e-05 -5.99287e-06 -1.40843e-05
8.94084e-06 -7.12637e-06 -1.34045e-05
6.13778e-06 -5.48571e-06 -1.16215e-05
6.63366e-06 -8.28733e-06 -1.29956e-05
4.09875e-06 -6.57815e-06 -1.12919e-05
4.51599e-06 -9.53531e-06 -1.29657e-05
2.23874e-06 -7.84584e-06 -1.15777e-05
2.48076e-06 -1.09838e-05 -1.33276e-05
2.24927e-07 -9.35859e-06 -1.23323e-05
3.29463e-07 -1.27485e-05 -1.40089e-05
-1.9123e-06 -1.11324e-05 -1.33536e-05
-1.83816e-06 -7.90907e-06 -1.15626e-05
-4.1611e-06 -9.85873e-06 -1.30622e-05
-3.80794e-06 -6.71991e-06 -1.1298e-05
-6.33526e-06 -8.64788e-06 -1.30765e-05
-5.88195e-06 -5.68898e-06 -1.16087e-05
-8.48575e-06 -7.42359e-06 -1.33562e-05
-8.15438e-06 -4.72044e-06 -1.23873e-05
-1.10772e-05 -6.3921e-06 -1.40449e-05
-4.36434e-06 -1.31012e-05 -1.44079e-05
-1.07911e-05 -3.64467e-06 -1.34156e-05
7.21406e-06 -1.13538e-05 -1.42476e-05
-7.72947e-06 1.97955e-06 -1.14735e-05
-1.31941e-05 1.03333e-06 -1.41857e-05
1.72619e-06 1.50573e-05 -1.49253e-05
1.3745e-05 4.61465e-07 -1.43621e-05
1.38198e-05 6.08978e-06 -1.49048e-05
-9.67778e-06 1.01792e-05 -1.45065e-05
-5.40769e-06 -3.19275e-06 -1.01654e-05
-1.16938e-05 -9.28162e-06 -1.48624e-05
1.18623e-05 -8.74543e-06 -1.47606e-05
1.47565e-05 -7.46084e-06 -1.53754e-05
-1.39361e-05 -5.23503e-06 -1.48349e-05
2.79111e-06 -1.44917e-05 -1.47696e-05
4.23833e-07 -1.64712e-05 -1.53698e-05
3.51312e-06 4.39029e-06 -9.56553e-06
1.39866e-05 9.28316e-06 -1.54634e-05
1.78997e-05 8.13086e-06 -1.62705e-05
-1.56483e-05 1.13756e-05 -1.62036e-05
-1.09222e-06 1.67404e-05 -1.54671e-05
1.90351e-06 1.95876e-05 -1.62809e-05
-2.0887e-06 5.21219e-06 -9.582e-06
5.54556e-06 -7.83418e-07 -9.57857e-06
3.5806e-06 -3.67806e-06 -9.06736e-06
-1.77696e-06 -5.17077e-06 -9.43429e-06
-2.24288e-05 -1.09914e-05 -1.74414e-05
-1.87653e-05 -9.22531e-06 -1.66202e-05
2.11103e-05 1.41395e-05 -1.74726e-05
2.0717e-05 -1.4292e-05 -1.74028e-05
-1.76131e-06 -2.54013e-05 -1.74779e-05
-1.679e-06 2.53654e-05 -1.74826e-05
1.76821e-05 -1.1886e-05 -1.66562e-05
2.06093e-05 -1.07322e-05 -1.7084e-05
3.76906e-06 -1.89523e-05 -1.61097e-05
7.67165e-07 -2.03104e-05 -1.64524e-05
-1.93709e-05 -1.26281e-05 -1.71111e-05
-1.37081e-05 -2.30305e-06 -1.44461e-05
-1.65644e-05 -3.69512e-06 -1.54494e-05
-1.03589e-05 -1.0946e-06 -1.29297e-05
2.44082e-05 1.10533e-05 -1.76183e-05
2.54516e-05 -1.23812e-05 -1.78143e-05
2.64419e-06 2.66782e-05 -1.76271e-05
2.5162e-06 -2.63665e-05 -1.75961e-05
3.33341e-06 -2.29914e-05 -1.69973e-05
-2.05034e-06 -1.82883e-05 -1.59217e-05
4.05163e-06 2.37494e-05 -1.70983e-05
2.25741e-05 8.3647e-06 -1.70872e-05
4.60565e-06 1.72836e-05 -1.56986e-05
1.44021e-05 -1.30967e-05 -1.61077e-05
-1.57603e-05 -1.09657e-05 -1.61847e-05
-1.67711e-05 -3.80786e-07 -1.53495e-05
1.72762e-05 4.67945e-06 -1.5697e-05
6.5421e-08 -6.37748e-06 -1.02505e-05
1.73911e-06 -4.8412e-06 -9.07784e-06
5.84144e-06 -2.93098e-06 -1.03611e-05
-2.14068e-05 3.74409e-06 -1.64284e-05
5.71955e-06 -1.62466e-05 -1.54795e-05
9.06776e-06 -1.74688e-05 -1.59682e-05
1.75414e-05 1.18609e-05 -1.66413e-05
1.39699e-05 -1.63536e-05 -1.63709e-05
1.07216e-05 -1.37654e-05 -1.55218e-05
-3.5426e-06 -4.21381e-06 -9.48535e-06
5.39097e-06 1.13678e-06 -9.48364e-06
5.21007e-06 3.21794e-06 -1.00308e-05
-1.74638e-06 -2.83035e-05 -1.78429e-05
1.88919e-06 5.29086e-06 -9.56886e-06
-1.13651e-07 6.09566e-06 -1.00223e-05
-3.77918e-06 4.12149e-06 -9.56284e-06
-5.61402e-06 3.02951e-06 -1.02683e-05
-5.1577e-06 1.0391e-06 -9.19872e-06
-7.51543e-06 -6.16398e-08 -1.11537e-05
-4.32802e-06 -8.09095e-07 -8.36855e-06
-3.10413e-06 1.86965e-06 -7.36252e-06
-2.20425e-05 -3.60162e-06 -1.64852e-05
2.33642e-05 -1.56595e-05 -1.78023e-05
-1.50452e-06 2.11308e-05 -1.6651e-05
2.12247e-05 -8.43712e-08 -1.61959e-05
1.75919e-05 -1.64399e-06 -1.55531e-05
1.73179e-05 -4.93319e-06 -1.57418e-05
2.18529e-05 -7.43818e-06 -1.6882e-05
-2.31406e-05 -1.42289e-05 -1.77989e-05
1.7295e-05 1.64606e-06 -1.54804e-05