# vtk DataFile Version 3.0
vtk output at time 0.5
ASCII
DATASET UNSTRUCTURED_GRID
POINTS 2586 float
-1.84029e-05 0.000489375 0 1.84029e-05 0.000489375 0 -0.000414597 0.000260625 0 
-0.00041175 0.00025 0 -0.000433 0.00022875 0 -0.000433 -0.00022875 0 
-0.00041175 -0.00025 0 -0.000414597 -0.000260625 0 -1.84029e-05 -0.000489375 0 
1.84029e-05 -0.000489375 0 0.000414597 -0.000260625 0 0.000433 -0.00022875 0 
0.000433 0.00022875 0 0.000414597 0.000260625 0 4.25e-05 0 0 
2.125e-05 0.0005 0 5.90898e-17 0.00052125 0 5.90919e-17 0.00097875 0 
2.125e-05 0.001 0 1.84029e-05 0.00101063 0 0.000414597 0.00123937 0 
0.000451403 0.00123937 0 0.000847597 0.00101063 0 0.000866 0.00097875 0 
0.000866 0.00052125 0 0.000847597 0.000489375 0 0.000451403 0.000260625 0 
0.0004755 0.00075 0 0.00045425 0.00025 0 0.000884403 0.000489375 0 
0.0012806 0.000260625 0 0.001299 0.00022875 0 0.001299 -0.00022875 0 
0.0012806 -0.000260625 0 0.000884403 -0.000489375 0 0.000847597 -0.000489375 0 
0.000451403 -0.000260625 0 0.00045425 -0.00025 0 0.0009085 0 0 
0.000866 -0.00052125 0 0.000866 -0.00097875 0 0.000847597 -0.00101063 0 
0.000451403 -0.00123937 0 0.000414597 -0.00123937 0 1.84029e-05 -0.00101063 0 
2.125e-05 -0.001 0 5.90898e-17 -0.00097875 0 5.90919e-17 -0.00052125 0 
2.125e-05 -0.0005 0 0.0004755 -0.00075 0 -1.84029e-05 -0.00101063 0 
-0.000414597 -0.00123937 0 -0.000451403 -0.00123937 0 -0.000847597 -0.00101063 0 
-0.00084475 -0.001 0 -0.000866 -0.00097875 0 -0.000866 -0.00052125 0 
-0.00084475 -0.0005 0 -0.000847597 -0.000489375 0 -0.000451403 -0.000260625 0 
-0.0003905 -0.00075 0 -0.000884403 -0.000489375 0 -0.0012806 -0.000260625 0 
-0.00127775 -0.00025 0 -0.001299 -0.00022875 0 -0.001299 0.00022875 0 
-0.00127775 0.00025 0 -0.0012806 0.000260625 0 -0.000884403 0.000489375 0 
-0.000847597 0.000489375 0 -0.000451403 0.000260625 0 -0.0008235 0 0 
-0.00084475 0.0005 0 -0.000866 0.00052125 0 -0.000866 0.00097875 0 
-0.00084475 0.001 0 -0.000847597 0.00101063 0 -0.000451403 0.00123937 0 
-0.000414597 0.00123937 0 -1.84029e-05 0.00101063 0 -0.0003905 0.00075 0 
-1.84029e-05 0.000489375 -0.0005 1.84029e-05 0.000489375 -0.0005 -0.000414597 0.000260625 -0.0005 
-0.00041175 0.00025 -0.0005 -0.000433 0.00022875 -0.0005 -0.000433 -0.00022875 -0.0005 
-0.00041175 -0.00025 -0.0005 -0.000414597 -0.000260625 -0.0005 -1.84029e-05 -0.000489375 -0.0005 
1.84029e-05 -0.000489375 -0.0005 0.000414597 -0.000260625 -0.0005 0.000433 -0.00022875 -0.0005 
0.000433 0.00022875 -0.0005 0.000414597 0.000260625 -0.0005 4.25e-05 0 -0.0005 
2.125e-05 0.0005 -0.0005 5.90898e-17 0.00052125 -0.0005 5.90919e-17 0.00097875 -0.0005 
2.125e-05 0.001 -0.0005 1.84029e-05 0.00101063 -0.0005 0.000414597 0.00123937 -0.0005 
0.000451403 0.00123937 -0.0005 0.000847597 0.00101063 -0.0005 0.000866 0.00097875 -0.0005 
0.000866 0.00052125 -0.0005 0.000847597 0.000489375 -0.0005 0.000451403 0.000260625 -0.0005 
0.0004755 0.00075 -0.0005 0.00045425 0.00025 -0.0005 0.000884403 0.000489375 -0.0005 
0.0012806 0.000260625 -0.0005 0.001299 0.00022875 -0.0005 0.001299 -0.00022875 -0.0005 
0.0012806 -0.000260625 -0.0005 0.000884403 -0.000489375 -0.0005 0.000847597 -0.000489375 -0.0005 
0.000451403 -0.000260625 -0.0005 0.00045425 -0.00025 -0.0005 0.0009085 0 -0.0005 
0.000866 -0.00052125 -0.0005 0.000866 -0.00097875 -0.0005 0.000847597 -0.00101063 -0.0005 
0.000451403 -0.00123937 -0.0005 0.000414597 -0.00123937 -0.0005 1.84029e-05 -0.00101063 -0.0005 
2.125e-05 -0.001 -0.0005 5.90898e-17 -0.00097875 -0.0005 5.90919e-17 -0.00052125 -0.0005 
2.125e-05 -0.0005 -0.0005 0.0004755 -0.00075 -0.0005 -1.84029e-05 -0.00101063 -0.0005 
-0.000414597 -0.00123937 -0.0005 -0.000451403 -0.00123937 -0.0005 -0.000847597 -0.00101063 -0.0005 
-0.00084475 -0.001 -0.0005 -0.000866 -0.00097875 -0.0005 -0.000866 -0.00052125 -0.0005 
-0.00084475 -0.0005 -0.0005 -0.000847597 -0.000489375 -0.0005 -0.000451403 -0.000260625 -0.0005 
-0.0003905 -0.00075 -0.0005 -0.000884403 -0.000489375 -0.0005 -0.0012806 -0.000260625 -0.0005 
-0.00127775 -0.00025 -0.0005 -0.001299 -0.00022875 -0.0005 -0.001299 0.00022875 -0.0005 
-0.00127775 0.00025 -0.0005 -0.0012806 0.000260625 -0.0005 -0.000884403 0.000489375 -0.0005 
-0.000847597 0.000489375 -0.0005 -0.000451403 0.000260625 -0.0005 -0.0008235 0 -0.0005 
-0.00084475 0.0005 -0.0005 -0.000866 0.00052125 -0.0005 -0.000866 0.00097875 -0.0005 
-0.00084475 0.001 -0.0005 -0.000847597 0.00101063 -0.0005 -0.000451403 0.00123937 -0.0005 
-0.000414597 0.00123937 -0.0005 -1.84029e-05 0.00101063 -0.0005 -0.0003905 0.00075 -0.0005 
-9.82724e-20 0.00047875 0 -0.000335358 0.000306375 0 -0.000256119 0.000352125 0 
-0.000176881 0.000397875 0 -9.76417e-05 0.000443625 0 -0.000412474 0.0002555 0 
-0.000417974 0.000234974 0 -0.000433 -0.00013725 0 -0.000433 -4.575e-05 0 
-0.000433 4.575e-05 0 -0.000433 0.00013725 0 -0.000417974 -0.000234974 0 
-0.000412474 -0.0002555 0 -9.76417e-05 -0.000443625 0 -0.000176881 -0.000397875 0 
-0.000256119 -0.000352125 0 -0.000335358 -0.000306375 0 -1.07223e-19 -0.00047875 0 
0.000335358 -0.000306375 0 0.000256119 -0.000352125 0 0.000176881 -0.000397875 0 
9.76417e-05 -0.000443625 0 0.000414597 -0.000239375 0 0.000433 0.00013725 0 
0.000433 4.575e-05 0 0.000433 -4.575e-05 0 0.000433 -0.00013725 0 
0.000414597 0.000239375 0 9.76417e-05 0.000443625 0 0.000176881 0.000397875 0 
0.000256119 0.000352125 0 0.000335358 0.000306375 0 -1.29514e-19 4.25e-05 0 
-4.25e-05 -3.53397e-19 0 4.07417e-19 -4.25e-05 0 2.05259e-05 0.0004945 0 
1.5026e-05 0.000515026 0 0 0.00061275 0 0 0.00070425 0 
0 0.00079575 0 0 0.00088725 0 1.5026e-05 0.000984974 0 
2.05259e-05 0.0010055 0 9.76417e-05 0.00105638 0 0.000176881 0.00110213 0 
0.000256119 0.00114787 0 0.000335358 0.00119362 0 0.000433 0.00122875 0 
0.000530642 0.00119362 0 0.000609881 0.00114787 0 0.000689119 0.00110213 0 
0.000768358 0.00105638 0 0.000847597 0.000989375 0 0.000866 0.00088725 0 
0.000866 0.00079575 0 0.000866 0.00070425 0 0.000866 0.00061275 0 
0.000847597 0.000510625 0 0.000530642 0.000306375 0 0.000609881 0.000352125 0 
0.000689119 0.000397875 0 0.000768358 0.000443625 0 0.000433 0.00027125 0 
0.000433 0.0007925 0 0.0003905 0.00075 0 0.000433 0.0007075 0 
0.000448026 0.000234974 0 0.000453526 0.0002555 0 0.000866 0.00047875 0 
0.000963642 0.000443625 0 0.00104288 0.000397875 0 0.00112212 0.000352125 0 
0.00120136 0.000306375 0 0.0012806 0.000239375 0 0.001299 0.00013725 0 
0.001299 4.575e-05 0 0.001299 -4.575e-05 0 0.001299 -0.00013725 0 
0.0012806 -0.000239375 0 0.00120136 -0.000306375 0 0.00112212 -0.000352125 0 
0.00104288 -0.000397875 0 0.000963642 -0.000443625 0 0.000866 -0.00047875 0 
0.000530642 -0.000306375 0 0.000609881 -0.000352125 0 0.000689119 -0.000397875 0 
0.000768358 -0.000443625 0 0.000453526 -0.0002555 0 0.000448026 -0.000234974 0 
0.000866 4.25e-05 0 0.0008235 -3.53397e-19 0 0.000866 -4.25e-05 0 
0.000433 -0.00027125 0 0.000847597 -0.000510625 0 0.000866 -0.00061275 0 
0.000866 -0.00070425 0 0.000866 -0.00079575 0 0.000866 -0.00088725 0 
0.000847597 -0.000989375 0 0.000768358 -0.00105638 0 0.000689119 -0.00110213 0 
0.000609881 -0.00114787 0 0.000530642 -0.00119362 0 0.000433 -0.00122875 0 
0.000335358 -0.00119362 0 0.000256119 -0.00114787 0 0.000176881 -0.00110213 0 
9.76417e-05 -0.00105638 0 2.05259e-05 -0.0010055 0 1.5026e-05 -0.000984974 0 
0 -0.00061275 0 0 -0.00070425 0 0 -0.00079575 0 
0 -0.00088725 0 1.5026e-05 -0.000515026 0 2.05259e-05 -0.0004945 0 
0.000433 -0.0007075 0 0.0003905 -0.00075 0 0.000433 -0.0007925 0 
-1.84031e-05 -0.000510625 0 -1.84031e-05 -0.000989375 0 -9.76417e-05 -0.00105638 0 
-0.000176881 -0.00110213 0 -0.000256119 -0.00114787 0 -0.000335358 -0.00119362 0 
-0.000433 -0.00122875 0 -0.000530642 -0.00119362 0 -0.000609881 -0.00114787 0 
-0.000689119 -0.00110213 0 -0.000768358 -0.00105638 0 -0.000845474 -0.0010055 0 
-0.000850974 -0.000984974 0 -0.000866 -0.00088725 0 -0.000866 -0.00079575 0 
-0.000866 -0.00070425 0 -0.000866 -0.00061275 0 -0.000850974 -0.000515026 0 
-0.000845474 -0.0004945 0 -0.000530642 -0.000306375 0 -0.000609881 -0.000352125 0 
-0.000689119 -0.000397875 0 -0.000768358 -0.000443625 0 -0.000433 -0.00027125 0 
-0.000433 -0.0007075 0 -0.0004755 -0.00075 0 -0.000433 -0.0007925 0 
-0.000451403 -0.000239375 0 -0.000866 -0.00047875 0 -0.000963642 -0.000443625 0 
-0.00104288 -0.000397875 0 -0.00112212 -0.000352125 0 -0.00120136 -0.000306375 0 
-0.00127847 -0.0002555 0 -0.00128397 -0.000234974 0 -0.001299 -0.00013725 0 
-0.001299 -4.575e-05 0 -0.001299 4.575e-05 0 -0.001299 0.00013725 0 
-0.00128397 0.000234974 0 -0.00127847 0.0002555 0 -0.00120136 0.000306375 0 
-0.00112212 0.000352125 0 -0.00104288 0.000397875 0 -0.000963642 0.000443625 0 
-0.000866 0.00047875 0 -0.000530642 0.000306375 0 -0.000609881 0.000352125 0 
-0.000689119 0.000397875 0 -0.000768358 0.000443625 0 -0.000451403 0.000239375 0 
-0.000866 4.25e-05 0 -0.0009085 -3.53397e-19 0 -0.000866 -4.25e-05 0 
-0.000433 0.00027125 0 -0.000845474 0.0004945 0 -0.000850974 0.000515026 0 
-0.000866 0.00061275 0 -0.000866 0.00070425 0 -0.000866 0.00079575 0 
-0.000866 0.00088725 0 -0.000850974 0.000984974 0 -0.000845474 0.0010055 0 
-0.000768358 0.00105638 0 -0.000689119 0.00110213 0 -0.000609881 0.00114787 0 
-0.000530642 0.00119362 0 -0.000433 0.00122875 0 -0.000335358 0.00119362 0 
-0.000256119 0.00114787 0 -0.000176881 0.00110213 0 -9.76417e-05 0.00105638 0 
-1.84031e-05 0.000989375 0 -1.84031e-05 0.000510625 0 -0.000433 0.0007925 0 
-0.0004755 0.00075 0 -0.000433 0.0007075 0 -9.82724e-20 0.00047875 -0.0005 
-0.000335358 0.000306375 -0.0005 -0.000256119 0.000352125 -0.0005 -0.000176881 0.000397875 -0.0005 
-9.76417e-05 0.000443625 -0.0005 -0.000412474 0.0002555 -0.0005 -0.000417974 0.000234974 -0.0005 
-0.000433 -0.00013725 -0.0005 -0.000433 -4.575e-05 -0.0005 -0.000433 4.575e-05 -0.0005 
-0.000433 0.00013725 -0.0005 -0.000417974 -0.000234974 -0.0005 -0.000412474 -0.0002555 -0.0005 
[...]
POINT_DATA 2586
VECTORS displacement float
-1.65057e-09 1.28147e-07 8.01315e-08
9.94131e-09 1.27295e-07 8.02066e-08
-1.06921e-07 7.96845e-08 8.42061e-08
-1.05904e-07 7.59434e-08 8.42449e-08
-1.12266e-07 6.99199e-08 8.66797e-08
-1.12382e-07 -6.9988e-08 8.66886e-08
-1.06022e-07 -7.60147e-08 8.4259e-08
-1.07038e-07 -7.97562e-08 8.42211e-08
-1.66006e-09 -1.27894e-07 8.03707e-08
9.91081e-09 -1.27421e-07 7.9994e-08
1.05874e-07 -6.61683e-08 7.99188e-08
1.11641e-07 -5.62486e-08 8.01242e-08
1.11785e-07 5.63187e-08 8.01604e-08
1.05981e-07 6.64012e-08 8.01566e-08
0 0 0
1.0876e-08 1.30582e-07 8.00162e-08
4.95964e-09 1.38054e-07 8.03122e-08
1.65294e-08 2.55269e-07 8.03767e-08
2.14864e-08 2.63474e-07 7.98342e-08
2.07642e-08 2.67891e-07 7.99498e-08
1.18134e-07 3.18466e-07 7.94122e-08
1.33538e-07 3.18014e-07 7.90437e-08
2.29418e-07 2.55821e-07 7.91081e-08
2.36627e-07 2.42267e-07 7.92135e-08
2.29559e-07 1.32438e-07 8.00807e-08
2.20862e-07 1.22364e-07 7.99829e-08
1.17689e-07 6.60739e-08 7.99305e-08
1.2486e-07 1.87458e-07 3.19097e-08
1.1836e-07 6.29257e-08 7.98064e-08
2.34098e-07 1.24439e-07 8.02456e-08
3.30088e-07 7.05762e-08 7.91807e-08
3.37795e-07 5.73267e-08 7.92843e-08
3.37709e-07 -5.74428e-08 7.92267e-08
3.3e-07 -7.07149e-08 7.91345e-08
2.34011e-07 -1.24706e-07 7.97533e-08
2.20852e-07 -1.22302e-07 8.01154e-08
1.176e-07 -6.62412e-08 8.0145e-08
1.18242e-07 -6.30336e-08 7.9949e-08
2.28268e-07 4.94694e-11 3.182e-08
2.29515e-07 -1.32444e-07 8.00842e-08
2.36589e-07 -2.42356e-07 7.93086e-08
2.29356e-07 -2.55888e-07 7.91947e-08
1.33455e-07 -3.17996e-07 7.90336e-08
1.18049e-07 -3.18453e-07 7.94048e-08
2.06645e-08 -2.67842e-07 7.99292e-08
2.13836e-08 -2.63424e-07 7.98125e-08
1.64003e-08 -2.55207e-07 8.03416e-08
4.99186e-09 -1.37965e-07 8.03521e-08
1.08738e-08 -1.30651e-07 7.98762e-08
1.24727e-07 -1.88392e-07 3.19125e-08
1.31185e-08 -2.68253e-07 8.02467e-08
-6.87423e-08 -3.41496e-07 7.93866e-08
-8.41129e-08 -3.43422e-07 7.9745e-08
-1.94956e-07 -3.08901e-07 7.96741e-08
-1.95071e-07 -3.04353e-07 7.95542e-08
-2.04841e-07 -2.95971e-07 7.99302e-08
-2.37582e-07 -1.87419e-07 8.53921e-08
-2.32645e-07 -1.77271e-07 8.6977e-08
-2.35416e-07 -1.74126e-07 8.8107e-08
-1.19116e-07 -8.2259e-08 8.66991e-08
-9.14115e-08 -2.08265e-07 3.21885e-08
-2.51918e-07 -1.79175e-07 9.08889e-08
-4.17359e-07 -1.02824e-07 9.62755e-08
-4.16454e-07 -9.85304e-08 9.62628e-08
-4.25297e-07 -9.01075e-08 9.63502e-08
-4.25278e-07 9.00689e-08 9.63509e-08
-4.16431e-07 9.84903e-08 9.62636e-08
-4.17334e-07 1.02784e-07 9.62763e-08
-2.51622e-07 1.79067e-07 9.07782e-08
-2.35624e-07 1.74044e-07 8.82552e-08
-1.19013e-07 8.21751e-08 8.6689e-08
-2.5032e-07 -2.81429e-11 9.09037e-08
-2.3281e-07 1.7719e-07 8.70922e-08
-2.3768e-07 1.87358e-07 8.54573e-08
-2.04713e-07 2.95885e-07 7.99341e-08
-1.94946e-07 3.04264e-07 7.95603e-08
-1.94831e-07 3.08813e-07 7.96805e-08
-8.46105e-08 3.43346e-07 7.94061e-08
-6.92419e-08 3.41521e-07 7.97679e-08
1.32221e-08 2.68301e-07 8.02888e-08
-9.13407e-08 2.08501e-07 3.21715e-08
-1.65057e-09 1.28147e-07 -8.01315e-08
9.94131e-09 1.27295e-07 -8.02066e-08
-1.06921e-07 7.96845e-08 -8.42061e-08
-1.05904e-07 7.59434e-08 -8.42449e-08
-1.12266e-07 6.99199e-08 -8.66797e-08
-1.12382e-07 -6.9988e-08 -8.66886e-08
-1.06022e-07 -7.60147e-08 -8.4259e-08
-1.07038e-07 -7.97562e-08 -8.42211e-08
-1.66006e-09 -1.27894e-07 -8.03707e-08
9.91081e-09 -1.27421e-07 -7.9994e-08
1.05874e-07 -6.61683e-08 -7.99188e-08
1.11641e-07 -5.62486e-08 -8.01242e-08
1.11785e-07 5.63187e-08 -8.01604e-08
1.05981e-07 6.64012e-08 -8.01566e-08
0 0 0
1.0876e-08 1.30582e-07 -8.00162e-08
4.95964e-09 1.38054e-07 -8.03122e-08
1.65294e-08 2.55269e-07 -8.03767e-08
2.14864e-08 2.63474e-07 -7.98342e-08
2.07642e-08 2.67891e-07 -7.99498e-08
1.18134e-07 3.18466e-07 -7.94122e-08
1.33538e-07 3.18014e-07 -7.90437e-08
2.29418e-07 2.55821e-07 -7.91081e-08
2.36627e-07 2.42267e-07 -7.92135e-08
2.29559e-07 1.32438e-07 -8.00807e-08
2.20862e-07 1.22364e-07 -7.99829e-08
1.17689e-07 6.60739e-08 -7.99305e-08
1.2486e-07 1.87458e-07 -3.19097e-08
1.1836e-07 6.29257e-08 -7.98064e-08
2.34098e-07 1.24439e-07 -8.02456e-08
3.30088e-07 7.05762e-08 -7.91807e-08
3.37795e-07 5.73267e-08 -7.92843e-08
3.37709e-07 -5.74428e-08 -7.92267e-08
3.3e-07 -7.07149e-08 -7.91345e-08
2.34011e-07 -1.24706e-07 -7.97533e-08
2.20852e-07 -1.22302e-07 -8.01154e-08
1.176e-07 -6.62412e-08 -8.0145e-08
1.18242e-07 -6.30336e-08 -7.9949e-08
2.28268e-07 4.94694e-11 -3.182e-08
2.29515e-07 -1.32444e-07 -8.00842e-08
2.36589e-07 -2.42356e-07 -7.93086e-08
2.29356e-07 -2.55888e-07 -7.91947e-08
1.33455e-07 -3.17996e-07 -7.90336e-08
1.18049e-07 -3.18453e-07 -7.94048e-08
2.06645e-08 -2.67842e-07 -7.99292e-08
2.13836e-08 -2.63424e-07 -7.98125e-08
1.64003e-08 -2.55207e-07 -8.03416e-08
4.99186e-09 -1.37965e-07 -8.03521e-08
1.08738e-08 -1.30651e-07 -7.98762e-08
1.24727e-07 -1.88392e-07 -3.19125e-08
1.31185e-08 -2.68253e-07 -8.02467e-08
-6.87423e-08 -3.41496e-07 -7.93866e-08
-8.41129e-08 -3.43422e-07 -7.9745e-08
-1.94956e-07 -3.08901e-07 -7.96741e-08
-1.95071e-07 -3.04353e-07 -7.95542e-08
-2.04841e-07 -2.95971e-07 -7.99302e-08
-2.37582e-07 -1.87419e-07 -8.53921e-08
-2.32645e-07 -1.77271e-07 -8.6977e-08
-2.35416e-07 -1.74126e-07 -8.8107e-08
-1.19116e-07 -8.2259e-08 -8.66991e-08
-9.14115e-08 -2.08265e-07 -3.21885e-08
-2.51918e-07 -1.79175e-07 -9.08889e-08
-4.17359e-07 -1.02824e-07 -9.62755e-08
-4.16454e-07 -9.85304e-08 -9.62628e-08
-4.25297e-07 -9.01075e-08 -9.63502e-08
-4.25278e-07 9.00689e-08 -9.63509e-08
-4.16431e-07 9.84903e-08 -9.62636e-08
-4.17334e-07 1.02784e-07 -9.62763e-08
-2.51622e-07 1.79067e-07 -9.07782e-08
-2.35624e-07 1.74044e-07 -8.82552e-08
-1.19013e-07 8.21751e-08 -8.6689e-08
-2.5032e-07 -2.81429e-11 -9.09037e-08
-2.3281e-07 1.7719e-07 -8.70922e-08
-2.3768e-07 1.87358e-07 -8.54573e-08
-2.04713e-07 2.95885e-07 -7.99341e-08
-1.94946e-07 3.04264e-07 -7.95603e-08
-1.94831e-07 3.08813e-07 -7.96805e-08
-8.46105e-08 3.43346e-07 -7.94061e-08
-6.92419e-08 3.41521e-07 -7.97679e-08
1.32221e-08 2.68301e-07 -8.02888e-08
-9.13407e-08 2.08501e-07 -3.21715e-08
4.02779e-09 1.24743e-07 7.98197e-08
-8.2199e-08 9.12789e-08 7.72769e-08
-6.27898e-08 9.95528e-08 7.1756e-08
-4.48441e-08 1.07388e-07 7.11143e-08
-2.58679e-08 1.15963e-07 7.52368e-08
-1.06085e-07 7.77661e-08 8.4257e-08
-1.07742e-07 7.14917e-08 8.51385e-08
-1.12519e-07 -3.94773e-08 8.42311e-08
-1.12098e-07 -1.28658e-08 8.20801e-08
-1.12043e-07 1.28126e-08 8.20022e-08
-1.12447e-07 3.94128e-08 8.42556e-08
-1.0786e-07 -7.15616e-08 8.51496e-08
-1.06203e-07 -7.78377e-08 8.42717e-08
-2.58318e-08 -1.15975e-07 7.52122e-08
-4.49186e-08 -1.07353e-07 7.13528e-08
-6.29014e-08 -9.95761e-08 7.17977e-08
-8.23172e-08 -9.13358e-08 7.73001e-08
3.91058e-09 -1.24669e-07 7.98338e-08
8.29502e-08 -8.00531e-08 7.46883e-08
6.55835e-08 -9.06345e-08 7.0092e-08
4.96024e-08 -1.00925e-07 7.01036e-08
3.24832e-08 -1.12134e-07 7.47497e-08
1.05897e-07 -5.97045e-08 7.98134e-08
1.10837e-07 2.96328e-08 7.46284e-08
1.10664e-07 9.36688e-09 7.01696e-08
1.1059e-07 -9.35483e-09 7.03402e-08
1.10818e-07 -2.95882e-08 7.45616e-08
1.06041e-07 5.98456e-08 7.99215e-08
3.24889e-08 1.12281e-07 7.46856e-08
4.96618e-08 1.01035e-07 7.03221e-08
6.56945e-08 9.07772e-08 7.03197e-08
8.31139e-08 8.00606e-08 7.4653e-08
0 0 0
0 0 0
0 0 0
1.08096e-08 1.29023e-07 8.02188e-08
8.94902e-09 1.35161e-07 7.98756e-08
6.61912e-09 1.65231e-07 7.48708e-08
8.86283e-09 1.86067e-07 7.07298e-08
1.12865e-08 2.05529e-07 7.05844e-08
1.36265e-08 2.26863e-07 7.49843e-08
1.98549e-08 2.5791e-07 7.98584e-08
2.13009e-08 2.65722e-07 7.99798e-08
4.76517e-08 2.74083e-07 7.5205e-08
6.64309e-08 2.77569e-07 7.14377e-08
8.12567e-08 2.85525e-07 7.14685e-08
9.62535e-08 2.9917e-07 7.48114e-08
1.25405e-07 3.14838e-07 7.89069e-08
1.53929e-07 2.96901e-07 7.49195e-08
1.68166e-07 2.81298e-07 7.10594e-08
1.82659e-07 2.71612e-07 7.11342e-08
2.01855e-07 2.65409e-07 7.46311e-08
2.30064e-07 2.47263e-07 7.89672e-08
2.28572e-07 2.13658e-07 7.47104e-08
2.21533e-07 1.94148e-07 7.15982e-08
2.20172e-07 1.77192e-07 7.14632e-08
2.23996e-07 1.58535e-07 7.53614e-08
2.22341e-07 1.28743e-07 7.98405e-08
1.41517e-07 7.95038e-08 7.47981e-08
1.59802e-07 8.91948e-08 7.02242e-08
1.76988e-07 9.84089e-08 7.02834e-08
1.95858e-07 1.08515e-07 7.48443e-08
1.11894e-07 6.90489e-08 7.97061e-08
1.19287e-07 1.96081e-07 3.23772e-08
1.10069e-07 1.8865e-07 3.20117e-08
1.16974e-07 1.8061e-07 3.15906e-08
1.1599e-07 5.87783e-08 7.973e-08
1.18454e-07 6.43817e-08 7.99715e-08
2.27069e-07 1.20312e-07 7.97594e-08
2.53246e-07 1.05584e-07 7.53444e-08
2.67115e-07 9.20364e-08 7.16952e-08
2.81981e-07 8.37815e-08 7.1347e-08
3.01828e-07 7.89381e-08 7.47337e-08
3.31053e-07 6.2033e-08 7.90443e-08
3.31126e-07 2.86743e-08 7.47734e-08
3.2588e-07 8.61964e-09 7.11228e-08
3.25641e-07 -8.96078e-09 7.1431e-08
3.31134e-07 -2.87537e-08 7.46644e-08
3.30977e-07 -6.21548e-08 7.89883e-08
3.01713e-07 -7.90832e-08 7.47255e-08
2.81847e-07 -8.38893e-08 7.13342e-08
2.66964e-07 -9.19652e-08 7.14177e-08
2.53123e-07 -1.05601e-07 7.54894e-08
2.26691e-07 -1.20557e-07 7.96168e-08
1.41378e-07 -7.94304e-08 7.47436e-08
1.59698e-07 -8.9205e-08 7.04568e-08
1.76915e-07 -9.84252e-08 7.04924e-08
1.95795e-07 -1.08532e-07 7.47427e-08
1.18345e-07 -6.45227e-08 8.01582e-08
1.15842e-07 -5.87824e-08 7.97547e-08
2.2117e-07 7.06676e-09 3.20882e-08
2.12342e-07 4.97025e-10 3.2321e-08
2.20403e-07 -7.47409e-09 3.2136e-08
1.11927e-07 -6.90017e-08 7.9696e-08
2.22306e-07 -1.28721e-07 7.9866e-08
2.23989e-07 -1.58583e-07 7.52524e-08
2.19897e-07 -1.77057e-07 7.17924e-08
2.21713e-07 -1.93944e-07 7.13027e-08
2.28475e-07 -2.13756e-07 7.48502e-08
2.30008e-07 -2.47339e-07 7.90625e-08
2.0175e-07 -2.65381e-07 7.47083e-08
1.82534e-07 -2.71616e-07 7.11682e-08
1.68047e-07 -2.81269e-07 7.10087e-08
1.53837e-07 -2.96878e-07 7.48935e-08
1.2532e-07 -3.14823e-07 7.88979e-08
9.61557e-08 -2.99162e-07 7.48166e-08
8.11525e-08 -2.85486e-07 7.14797e-08
6.63424e-08 -2.7751e-07 7.1442e-08
4.75688e-08 -2.74029e-07 7.51986e-08
2.12003e-08 -2.65673e-07 7.99591e-08
1.97409e-08 -2.57855e-07 7.98304e-08
6.55653e-09 -1.65178e-07 7.49378e-08
8.8693e-09 -1.86068e-07 7.0567e-08
1.11558e-08 -2.0551e-07 7.07517e-08
1.35873e-08 -2.26818e-07 7.49229e-08
8.97823e-09 -1.35137e-07 7.98542e-08
1.07979e-08 -1.29124e-07 8.00343e-08
1.17508e-07 -1.80214e-07 3.22516e-08
1.09989e-07 -1.88216e-07 3.201e-08
1.18595e-07 -1.95725e-07 3.1723e-08
-9.74416e-10 -1.34701e-07 8.01775e-08
1.19947e-08 -2.59976e-07 8.01157e-08
-1.0601e-08 -2.78489e-07 7.56082e-08
-2.6549e-08 -2.86434e-07 7.18963e-08
-3.84016e-08 -2.98664e-07 7.16397e-08
-5.03824e-08 -3.17281e-07 7.53573e-08
-7.72857e-08 -3.39057e-07 7.92483e-08
-1.07736e-07 -3.27349e-07 7.51782e-08
-1.24656e-07 -3.17095e-07 7.18426e-08
-1.41853e-07 -3.12571e-07 7.17248e-08
-1.63837e-07 -3.12271e-07 7.52516e-08
-1.94721e-07 -3.06631e-07 7.97015e-08
-1.98925e-07 -2.98514e-07 7.95136e-08
-2.03013e-07 -2.67475e-07 7.58279e-08
-2.03005e-07 -2.48183e-07 7.31692e-08
-2.08884e-07 -2.31444e-07 7.41467e-08
-2.21113e-07 -2.13358e-07 7.87983e-08
-2.32849e-07 -1.82772e-07 8.54505e-08
-2.33756e-07 -1.75584e-07 8.7665e-08
-1.44299e-07 -1.01069e-07 8.45454e-08
-1.66337e-07 -1.18051e-07 8.25234e-08
-1.87985e-07 -1.34722e-07 8.26296e-08
-2.10617e-07 -1.52287e-07 8.5191e-08
-1.13124e-07 -8.43002e-08 8.48331e-08
-9.99848e-08 -2.02425e-07 3.3273e-08
-1.07054e-07 -2.13652e-07 3.32813e-08
-9.7554e-08 -2.18567e-07 3.23283e-08
-1.18469e-07 -7.49388e-08 8.73535e-08
-2.45006e-07 -1.7322e-07 8.99929e-08
-2.87265e-07 -1.65844e-07 9.23796e-08
-3.2049e-07 -1.51005e-07 9.32058e-08
-3.5291e-07 -1.35425e-07 9.41484e-08
-3.85007e-07 -1.19371e-07 9.53155e-08
-4.1662e-07 -1.00747e-07 9.6283e-08
-4.19243e-07 -9.25287e-08 9.62779e-08
-4.25935e-07 -5.37994e-08 9.58198e-08
-4.26278e-07 -1.79331e-08 9.54249e-08
-4.26277e-07 1.78873e-08 9.54225e-08
-4.25925e-07 5.37555e-08 9.582e-08
-4.19223e-07 9.24886e-08 9.62787e-08
-4.16596e-07 1.00708e-07 9.62838e-08
-3.84972e-07 1.19322e-07 9.53168e-08
-3.52865e-07 1.35352e-07 9.41407e-08
-3.2047e-07 1.50947e-07 9.31666e-08
-2.87259e-07 1.65858e-07 9.23973e-08
-2.44693e-07 1.73107e-07 8.9916e-08
-1.44206e-07 1.00957e-07 8.45454e-08
-1.66257e-07 1.1792e-07 8.25408e-08
-1.87915e-07 1.34584e-07 8.27238e-08
-2.10548e-07 1.52196e-07 8.519e-08
-1.1838e-07 7.48604e-08 8.73468e-08
-2.65114e-07 1.51976e-08 9.16267e-08
-2.80376e-07 -1.58506e-11 9.24214e-08
-2.65095e-07 -1.52575e-08 9.16627e-08
-1.13013e-07 8.42221e-08 8.48193e-08
-2.3395e-07 1.75495e-07 8.7799e-08
-2.32958e-07 1.82701e-07 8.55249e-08
-2.21152e-07 2.13287e-07 7.88366e-08
-2.08872e-07 2.31437e-07 7.41579e-08
-2.02927e-07 2.48168e-07 7.31927e-08
-2.02905e-07 2.67402e-07 7.58297e-08
-1.98799e-07 2.98426e-07 7.95183e-08
-1.94596e-07 3.06542e-07 7.97077e-08
-1.63724e-07 3.12152e-07 7.52702e-08
-1.41742e-07 3.12449e-07 7.17209e-08
-1.24607e-07 3.16739e-07 7.157e-08
-1.07685e-07 3.27201e-07 7.53575e-08
-7.71516e-08 3.39031e-07 7.92694e-08
-5.03464e-08 3.17346e-07 7.52204e-08
-3.83588e-08 2.98974e-07 7.19454e-08
-2.64534e-08 2.86543e-07 7.19422e-08
-1.04812e-08 2.78548e-07 7.56391e-08
1.20836e-08 2.60031e-07 8.0162e-08
-1.0098e-09 1.34859e-07 8.00654e-08
-9.66345e-08 2.18831e-07 3.28503e-08
-1.06976e-07 2.12583e-07 3.32939e-08
-1.00708e-07 2.02743e-07 3.27418e-08
4.02779e-09 1.24743e-07 -7.98197e-08
-8.2199e-08 9.12789e-08 -7.72769e-08
-6.27898e-08 9.95528e-08 -7.1756e-08
-4.48441e-08 1.07388e-07 -7.11143e-08
-2.58679e-08 1.15963e-07 -7.52368e-08
-1.06085e-07 7.77661e-08 -8.4257e-08
-1.07742e-07 7.14917e-08 -8.51385e-08
-1.12519e-07 -3.94773e-08 -8.42311e-08
-1.12098e-07 -1.28658e-08 -8.20801e-08
-1.12043e-07 1.28126e-08 -8.20022e-08
-1.12447e-07 3.94128e-08 -8.42556e-08
-1.0786e-07 -7.15616e-08 -8.51496e-08
-1.06203e-07 -7.78377e-08 -8.42717e-08
-2.58318e-08 -1.15975e-07 -7.52122e-08
-4.49186e-08 -1.07353e-07 -7.13528e-08
-6.29014e-08 -9.95761e-08 -7.17977e-08
-8.23172e-08 -9.13358e-08 -7.73001e-08
3.91058e-09 -1.24669e-07 -7.98338e-08
8.29502e-08 -8.00531e-08 -7.46883e-08
6.55835e-08 -9.06345e-08 -7.0092e-08
4.96024e-08 -1.00925e-07 -7.01036e-08
3.24832e-08 -1.12134e-07 -7.47497e-08
1.05897e-07 -5.97045e-08 -7.98134e-08
1.10837e-07 2.96328e-08 -7.46284e-08
1.10664e-07 9.36688e-09 -7.01696e-08
1.1059e-07 -9.35483e-09 -7.03402e-08
1.10818e-07 -2.95882e-08 -7.45616e-08
1.06041e-07 5.98456e-08 -7.99215e-08
3.24889e-08 1.12281e-07 -7.46856e-08
4.96618e-08 1.01035e-07 -7.03221e-08
6.56945e-08 9.07772e-08 -7.03197e-08
8.31139e-08 8.00606e-08 -7.4653e-08
0 0 0
0 0 0
0 0 0
1.08096e-08 1.29023e-07 -8.02188e-08
8.94902e-09 1.35161e-07 -7.98756e-08
6.61912e-09 1.65231e-07 -7.48708e-08
8.86283e-09 1.86067e-07 -7.07298e-08
1.12865e-08 2.05529e-07 -7.05844e-08
1.36265e-08 2.26863e-07 -7.49843e-08
1.98549e-08 2.5791e-07 -7.98584e-08
2.13009e-08 2.65722e-07 -7.99798e-08
4.76517e-08 2.74083e-07 -7.5205e-08
6.64309e-08 2.77569e-07 -7.14377e-08
8.12567e-08 2.85525e-07 -7.14685e-08
9.62535e-08 2.9917e-07 -7.48114e-08
1.25405e-07 3.14838e-07 -7.89069e-08
1.53929e-07 2.96901e-07 -7.49195e-08
1.68166e-07 2.81298e-07 -7.10594e-08
1.82659e-07 2.71612e-07 -7.11342e-08
2.01855e-07 2.65409e-07 -7.46311e-08
2.30064e-07 2.47263e-07 -7.89672e-08
2.28572e-07 2.13658e-07 -7.47104e-08
2.21533e-07 1.94148e-07 -7.15982e-08
2.20172e-07 1.77192e-07 -7.14632e-08
2.23996e-07 1.58535e-07 -7.53614e-08
2.22341e-07 1.28743e-07 -7.98405e-08
1.41517e-07 7.95038e-08 -7.47981e-08
1.59802e-07 8.91948e-08 -7.02242e-08
1.76988e-07 9.84089e-08 -7.02834e-08
1.95858e-07 1.08515e-07 -7.48443e-08
1.11894e-07 6.90489e-08 -7.97061e-08
1.19287e-07 1.96081e-07 -3.23772e-08
1.10069e-07 1.8865e-07 -3.20117e-08
1.16974e-07 1.8061e-07 -3.15906e-08
1.1599e-07 5.87783e-08 -7.973e-08
1.18454e-07 6.43817e-08 -7.99715e-08
2.27069e-07 1.20312e-07 -7.97594e-08
2.53246e-07 1.05584e-07 -7.53444e-08
2.67115e-07 9.20364e-08 -7.16952e-08
2.81981e-07 8.37815e-08 -7.1347e-08
3.01828e-07 7.89381e-08 -7.47337e-08
3.31053e-07 6.2033e-08 -7.90443e-08
3.31126e-07 2.86743e-08 -7.47734e-08
3.2588e-07 8.61964e-09 -7.11228e-08
3.25641e-07 -8.96078e-09 -7.1431e-08
3.31134e-07 -2.87537e-08 -7.46644e-08
3.30977e-07 -6.21548e-08 -7.89883e-08
3.01713e-07 -7.90832e-08 -7.47255e-08
2.81847e-07 -8.38893e-08 -7.13342e-08
2.66964e-07 -9.19652e-08 -7.14177e-08
2.53123e-07 -1.05601e-07 -7.54894e-08
2.26691e-07 -1.20557e-07 -7.96168e-08
1.41378e-07 -7.94304e-08 -7.47436e-08
1.59698e-07 -8.9205e-08 -7.04568e-08
1.76915e-07 -9.84252e-08 -7.04924e-08
1.95795e-07 -1.08532e-07 -7.47427e-08
1.18345e-07 -6.45227e-08 -8.01582e-08
1.15842e-07 -5.87824e-08 -7.97547e-08
2.2117e-07 7.06676e-09 -3.20882e-08
2.12342e-07 4.97025e-10 -3.2321e-08
2.20403e-07 -7.47409e-09 -3.2136e-08
1.11927e-07 -6.90017e-08 -7.9696e-08
2.22306e-07 -1.28721e-07 -7.9866e-08
2.23989e-07 -1.58583e-07 -7.52524e-08
2.19897e-07 -1.77057e-07 -7.17924e-08
2.21713e-07 -1.93944e-07 -7.13027e-08
2.28475e-07 -2.13756e-07 -7.48502e-08
2.30008e-07 -2.47339e-07 -7.90625e-08
2.0175e-07 -2.65381e-07 -7.47083e-08
1.82534e-07 -2.71616e-07 -7.11682e-08
1.68047e-07 -2.81269e-07 -7.10087e-08
1.53837e-07 -2.96878e-07 -7.48935e-08
1.2532e-07 -3.14823e-07 -7.88979e-08
9.61557e-08 -2.99162e-07 -7.48166e-08
8.11525e-08 -2.85486e-07 -7.14797e-08
6.63424e-08 -2.7751e-07 -7.1442e-08
4.75688e-08 -2.74029e-07 -7.51986e-08
2.12003e-08 -2.65673e-07 -7.99591e-08
1.97409e-08 -2.57855e-07 -7.98304e-08
6.55653e-09 -1.65178e-07 -7.49378e-08
8.8693e-09 -1.86068e-07 -7.0567e-08
1.11558e-08 -2.0551e-07 -7.07517e-08
1.35873e-08 -2.26818e-07 -7.49229e-08
8.97823e-09 -1.35137e-07 -7.98542e-08
1.07979e-08 -1.29124e-07 -8.00343e-08
1.17508e-07 -1.80214e-07 -3.22516e-08
1.09989e-07 -1.88216e-07 -3.201e-08
1.18595e-07 -1.95725e-07 -3.1723e-08
-9.74416e-10 -1.34701e-07 -8.01775e-08
1.19947e-08 -2.59976e-07 -8.01157e-08
-1.0601e-08 -2.78489e-07 -7.56082e-08
-2.6549e-08 -2.86434e-07 -7.18963e-08
-3.84016e-08 -2.98664e-07 -7.16397e-08
-5.03824e-08 -3.17281e-07 -7.53573e-08
-7.72857e-08 -3.39057e-07 -7.92483e-08
-1.07736e-07 -3.27349e-07 -7.51782e-08
-1.24656e-07 -3.17095e-07 -7.18426e-08
-1.41853e-07 -3.12571e-07 -7.17248e-08
-1.63837e-07 -3.12271e-07 -7.52516e-08
-1.94721e-07 -3.06631e-07 -7.97015e-08
-1.98925e-07 -2.98514e-07 -7.95136e-08
-2.03013e-07 -2.67475e-07 -7.58279e-08
-2.03005e-07 -2.48183e-07 -7.31692e-08
-2.08884e-07 -2.31444e-07 -7.41467e-08
-2.21113e-07 -2.13358e-07 -7.87983e-08
-2.32849e-07 -1.82772e-07 -8.54505e-08
-2.33756e-07 -1.75584e-07 -8.7665e-08
-1.44299e-07 -1.01069e-07 -8.45454e-08
-1.66337e-07 -1.18051e-07 -8.25234e-08
-1.87985e-07 -1.34722e-07 -8.26296e-08
-2.10617e-07 -1.52287e-07 -8.5191e-08
-1.13124e-07 -8.43002e-08 -8.48331e-08
-9.99848e-08 -2.02425e-07 -3.3273e-08
-1.07054e-07 -2.13652e-07 -3.32813e-08
-9.7554e-08 -2.18567e-07 -3.23283e-08
-1.18469e-07 -7.49388e-08 -8.73535e-08
-2.45006e-07 -1.7322e-07 -8.99929e-08
-2.87265e-07 -1.65844e-07 -9.23796e-08
-3.2049e-07 -1.51005e-07 -9.32058e-08
-3.5291e-07 -1.35425e-07 -9.41484e-08
-3.85007e-07 -1.19371e-07 -9.53155e-08
-4.1662e-07 -1.00747e-07 -9.6283e-08
-4.19243e-07 -9.25287e-08 -9.62779e-08
-4.25935e-07 -5.37994e-08 -9.58198e-08
-4.26278e-07 -1.79331e-08 -9.54249e-08
-4.26277e-07 1.78873e-08 -9.54225e-08
-4.25925e-07 5.37555e-08 -9.582e-08
-4.19223e-07 9.24886e-08 -9.62787e-08
-4.16596e-07 1.00708e-07 -9.62838e-08
-3.84972e-07 1.19322e-07 -9.53168e-08
-3.52865e-07 1.35352e-07 -9.41407e-08
-3.2047e-07 1.50947e-07 -9.31666e-08
-2.87259e-07 1.65858e-07 -9.23973e-08
-2.44693e-07 1.73107e-07 -8.9916e-08
-1.44206e-07 1.00957e-07 -8.45454e-08
-1.66257e-07 1.1792e-07 -8.25408e-08
-1.87915e-07 1.34584e-07 -8.27238e-08
-2.10548e-07 1.52196e-07 -8.519e-08