# vtk DataFile Version 3.0
vtk output at time 0.1
ASCII
DATASET UNSTRUCTURED_GRID
POINTS 2586 float
-1.84029e-05 0.000489375 0 1.84029e-05 0.000489375 0 -0.000414597 0.000260625 0 
-0.00041175 0.00025 0 -0.000433 0.00022875 0 -0.000433 -0.00022875 0 
-0.00041175 -0.00025 0 -0.000414597 -0.000260625 0 -1.84029e-05 -0.000489375 0 
1.84029e-05 -0.000489375 0 0.000414597 -0.000260625 0 0.000433 -0.00022875 0 
0.000433 0.00022875 0 0.000414597 0.000260625 0 4.25e-05 0 0 
2.125e-05 0.0005 0 5.90898e-17 0.00052125 0 5.90919e-17 0.00097875 0 
2.125e-05 0.001 0 1.84029e-05 0.00101063 0 0.000414597 0.00123937 0 
0.000451403 0.00123937 0 0.000847597 0.00101063 0 0.000866 0.00097875 0 
0.000866 0.00052125 0 0.000847597 0.000489375 0 0.000451403 0.000260625 0 
0.0004755 0.00075 0 0.00045425 0.00025 0 0.000884403 0.000489375 0 
0.0012806 0.000260625 0 0.001299 0.00022875 0 0.001299 -0.00022875 0 
0.0012806 -0.000260625 0 0.000884403 -0.000489375 0 0.000847597 -0.000489375 0 
0.000451403 -0.000260625 0 0.00045425 -0.00025 0 0.0009085 0 0 
0.000866 -0.00052125 0 0.000866 -0.00097875 0 0.000847597 -0.00101063 0 
0.000451403 -0.00123937 0 0.000414597 -0.00123937 0 1.84029e-05 -0.00101063 0 
2.125e-05 -0.001 0 5.90898e-17 -0.00097875 0 5.90919e-17 -0.00052125 0 
2.125e-05 -0.0005 0 0.0004755 -0.00075 0 -1.84029e-05 -0.00101063 0 
-0.000414597 -0.00123937 0 -0.000451403 -0.00123937 0 -0.000847597 -0.00101063 0 
-0.00084475 -0.001 0 -0.000866 -0.00097875 0 -0.000866 -0.00052125 0 
-0.00084475 -0.0005 0 -0.000847597 -0.000489375 0 -0.000451403 -0.000260625 0 
-0.0003905 -0.00075 0 -0.000884403 -0.000489375 0 -0.0012806 -0.000260625 0 
-0.00127775 -0.00025 0 -0.001299 -0.00022875 0 -0.001299 0.00022875 0 
-0.00127775 0.00025 0 -0.0012806 0.000260625 0 -0.000884403 0.000489375 0 
-0.000847597 0.000489375 0 -0.000451403 0.000260625 0 -0.0008235 0 0 
-0.00084475 0.0005 0 -0.000866 0.00052125 0 -0.000866 0.00097875 0 
-0.00084475 0.001 0 -0.000847597 0.00101063 0 -0.000451403 0.00123937 0 
-0.000414597 0.00123937 0 -1.84029e-05 0.00101063 0 -0.0003905 0.00075 0 
-1.84029e-05 0.000489375 -0.0005 1.84029e-05 0.000489375 -0.0005 -0.000414597 0.000260625 -0.0005 
-0.00041175 0.00025 -0.0005 -0.000433 0.00022875 -0.0005 -0.000433 -0.00022875 -0.0005 
-0.00041175 -0.00025 -0.0005 -0.000414597 -0.000260625 -0.0005 -1.84029e-05 -0.000489375 -0.0005 
1.84029e-05 -0.000489375 -0.0005 0.000414597 -0.000260625 -0.0005 0.000433 -0.00022875 -0.0005 
0.000433 0.00022875 -0.0005 0.000414597 0.000260625 -0.0005 4.25e-05 0 -0.0005 
2.125e-05 0.0005 -0.0005 5.90898e-17 0.00052125 -0.0005 5.90919e-17 0.00097875 -0.0005 
2.125e-05 0.001 -0.0005 1.84029e-05 0.00101063 -0.0005 0.000414597 0.00123937 -0.0005 
0.000451403 0.00123937 -0.0005 0.000847597 0.00101063 -0.0005 0.000866 0.00097875 -0.0005 
0.000866 0.00052125 -0.0005 0.000847597 0.000489375 -0.0005 0.000451403 0.000260625 -0.0005 
0.0004755 0.00075 -0.0005 0.00045425 0.00025 -0.0005 0.000884403 0.000489375 -0.0005 
0.0012806 0.000260625 -0.0005 0.001299 0.00022875 -0.0005 0.001299 -0.00022875 -0.0005 
0.0012806 -0.000260625 -0.0005 0.000884403 -0.000489375 -0.0005 0.000847597 -0.000489375 -0.0005 
0.000451403 -0.000260625 -0.0005 0.00045425 -0.00025 -0.0005 0.0009085 0 -0.0005 
0.000866 -0.00052125 -0.0005 0.000866 -0.00097875 -0.0005 0.000847597 -0.00101063 -0.0005 
0.000451403 -0.00123937 -0.0005 0.000414597 -0.00123937 -0.0005 1.84029e-05 -0.00101063 -0.0005 
2.125e-05 -0.001 -0.0005 5.90898e-17 -0.00097875 -0.0005 5.90919e-17 -0.00052125 -0.0005 
2.125e-05 -0.0005 -0.0005 0.0004755 -0.00075 -0.0005 -1.84029e-05 -0.00101063 -0.0005 
-0.000414597 -0.00123937 -0.0005 -0.000451403 -0.00123937 -0.0005 -0.000847597 -0.00101063 -0.0005 
-0.00084475 -0.001 -0.0005 -0.000866 -0.00097875 -0.0005 -0.000866 -0.00052125 -0.0005 
-0.00084475 -0.0005 -0.0005 -0.000847597 -0.000489375 -0.0005 -0.000451403 -0.000260625 -0.0005 
-0.0003905 -0.00075 -0.0005 -0.000884403 -0.000489375 -0.0005 -0.0012806 -0.000260625 -0.0005 
-0.00127775 -0.00025 -0.0005 -0.001299 -0.00022875 -0.0005 -0.001299 0.00022875 -0.0005 
-0.00127775 0.00025 -0.0005 -0.0012806 0.000260625 -0.0005 -0.000884403 0.000489375 -0.0005 
-0.000847597 0.000489375 -0.0005 -0.000451403 0.000260625 -0.0005 -0.0008235 0 -0.0005 
-0.00084475 0.0005 -0.0005 -0.000866 0.00052125 -0.0005 -0.000866 0.00097875 -0.0005 
-0.00084475 0.001 -0.0005 -0.000847597 0.00101063 -0.0005 -0.000451403 0.00123937 -0.0005 
-0.000414597 0.00123937 -0.0005 -1.84029e-05 0.00101063 -0.0005 -0.0003905 0.00075 -0.0005 
-9.82724e-20 0.00047875 0 -0.000335358 0.000306375 0 -0.000256119 0.000352125 0 
-0.000176881 0.000397875 0 -9.76417e-05 0.000443625 0 -0.000412474 0.0002555 0 
-0.000417974 0.000234974 0 -0.000433 -0.00013725 0 -0.000433 -4.575e-05 0 
-0.000433 4.575e-05 0 -0.000433 0.00013725 0 -0.000417974 -0.000234974 0 
-0.000412474 -0.0002555 0 -9.76417e-05 -0.000443625 0 -0.000176881 -0.000397875 0 
-0.000256119 -0.000352125 0 -0.000335358 -0.000306375 0 -1.07223e-19 -0.00047875 0 
0.000335358 -0.000306375 0 0.000256119 -0.000352125 0 0.000176881 -0.000397875 0 
9.76417e-05 -0.000443625 0 0.000414597 -0.000239375 0 0.000433 0.00013725 0 
0.000433 4.575e-05 0 0.000433 -4.575e-05 0 0.000433 -0.00013725 0 
0.000414597 0.000239375 0 9.76417e-05 0.000443625 0 0.000176881 0.000397875 0 
0.000256119 0.000352125 0 0.000335358 0.000306375 0 -1.29514e-19 4.25e-05 0 
-4.25e-05 -3.53397e-19 0 4.07417e-19 -4.25e-05 0 2.05259e-05 0.0004945 0 
1.5026e-05 0.000515026 0 0 0.00061275 0 0 0.00070425 0 
0 0.00079575 0 0 0.00088725 0 1.5026e-05 0.000984974 0 
2.05259e-05 0.0010055 0 9.76417e-05 0.00105638 0 0.000176881 0.00110213 0 
0.000256119 0.00114787 0 0.000335358 0.00119362 0 0.000433 0.00122875 0 
0.000530642 0.00119362 0 0.000609881 0.00114787 0 0.000689119 0.00110213 0 
0.000768358 0.00105638 0 0.000847597 0.000989375 0 0.000866 0.00088725 0 
0.000866 0.00079575 0 0.000866 0.00070425 0 0.000866 0.00061275 0 
0.000847597 0.000510625 0 0.000530642 0.000306375 0 0.000609881 0.000352125 0 
0.000689119 0.000397875 0 0.000768358 0.000443625 0 0.000433 0.00027125 0 
0.000433 0.0007925 0 0.0003905 0.00075 0 0.000433 0.0007075 0 
0.000448026 0.000234974 0 0.000453526 0.0002555 0 0.000866 0.00047875 0 
0.000963642 0.000443625 0 0.00104288 0.000397875 0 0.00112212 0.000352125 0 
0.00120136 0.000306375 0 0.0012806 0.000239375 0 0.001299 0.00013725 0 
0.001299 4.575e-05 0 0.001299 -4.575e-05 0 0.001299 -0.00013725 0 
0.0012806 -0.000239375 0 0.00120136 -0.000306375 0 0.00112212 -0.000352125 0 
0.00104288 -0.000397875 0 0.000963642 -0.000443625 0 0.000866 -0.00047875 0 
0.000530642 -0.000306375 0 0.000609881 -0.000352125 0 0.000689119 -0.000397875 0 
0.000768358 -0.000443625 0 0.000453526 -0.0002555 0 0.000448026 -0.000234974 0 
0.000866 4.25e-05 0 0.0008235 -3.53397e-19 0 0.000866 -4.25e-05 0 
0.000433 -0.00027125 0 0.000847597 -0.000510625 0 0.000866 -0.00061275 0 
0.000866 -0.00070425 0 0.000866 -0.00079575 0 0.000866 -0.00088725 0 
0.000847597 -0.000989375 0 0.000768358 -0.00105638 0 0.000689119 -0.00110213 0 
0.000609881 -0.00114787 0 0.000530642 -0.00119362 0 0.000433 -0.00122875 0 
0.000335358 -0.00119362 0 0.000256119 -0.00114787 0 0.000176881 -0.00110213 0 
9.76417e-05 -0.00105638 0 2.05259e-05 -0.0010055 0 1.5026e-05 -0.000984974 0 
0 -0.00061275 0 0 -0.00070425 0 0 -0.00079575 0 
0 -0.00088725 0 1.5026e-05 -0.000515026 0 2.05259e-05 -0.0004945 0 
0.000433 -0.0007075 0 0.0003905 -0.00075 0 0.000433 -0.0007925 0 
-1.84031e-05 -0.000510625 0 -1.84031e-05 -0.000989375 0 -9.76417e-05 -0.00105638 0 
-0.000176881 -0.00110213 0 -0.000256119 -0.00114787 0 -0.000335358 -0.00119362 0 
-0.000433 -0.00122875 0 -0.000530642 -0.00119362 0 -0.000609881 -0.00114787 0 
-0.000689119 -0.00110213 0 -0.000768358 -0.00105638 0 -0.000845474 -0.0010055 0 
-0.000850974 -0.000984974 0 -0.000866 -0.00088725 0 -0.000866 -0.00079575 0 
-0.000866 -0.00070425 0 -0.000866 -0.00061275 0 -0.000850974 -0.000515026 0 
-0.000845474 -0.0004945 0 -0.000530642 -0.000306375 0 -0.000609881 -0.000352125 0 
-0.000689119 -0.000397875 0 -0.000768358 -0.000443625 0 -0.000433 -0.00027125 0 
-0.000433 -0.0007075 0 -0.0004755 -0.00075 0 -0.000433 -0.0007925 0 
-0.000451403 -0.000239375 0 -0.000866 -0.00047875 0 -0.000963642 -0.000443625 0 
-0.00104288 -0.000397875 0 -0.00112212 -0.000352125 0 -0.00120136 -0.000306375 0 
-0.00127847 -0.0002555 0 -0.00128397 -0.000234974 0 -0.001299 -0.00013725 0 
-0.001299 -4.575e-05 0 -0.001299 4.575e-05 0 -0.001299 0.00013725 0 
-0.00128397 0.000234974 0 -0.00127847 0.0002555 0 -0.00120136 0.000306375 0 
-0.00112212 0.000352125 0 -0.00104288 0.000397875 0 -0.000963642 0.000443625 0 
-0.000866 0.00047875 0 -0.000530642 0.000306375 0 -0.000609881 0.000352125 0 
-0.000689119 0.000397875 0 -0.000768358 0.000443625 0 -0.000451403 0.000239375 0 
-0.000866 4.25e-05 0 -0.0009085 -3.53397e-19 0 -0.000866 -4.25e-05 0 
-0.000433 0.00027125 0 -0.000845474 0.0004945 0 -0.000850974 0.000515026 0 
-0.000866 0.00061275 0 -0.000866 0.00070425 0 -0.000866 0.00079575 0 
-0.000866 0.00088725 0 -0.000850974 0.000984974 0 -0.000845474 0.0010055 0 
-0.000768358 0.00105638 0 -0.000689119 0.00110213 0 -0.000609881 0.00114787 0 
-0.000530642 0.00119362 0 -0.000433 0.00122875 0 -0.000335358 0.00119362 0 
-0.000256119 0.00114787 0 -0.000176881 0.00110213 0 -9.76417e-05 0.00105638 0 
-1.84031e-05 0.000989375 0 -1.84031e-05 0.000510625 0 -0.000433 0.0007925 0 
-0.0004755 0.00075 0 -0.000433 0.0007075 0 -9.82724e-20 0.00047875 -0.0005 
-0.000335358 0.000306375 -0.0005 -0.000256119 0.000352125 -0.0005 -0.000176881 0.000397875 -0.0005 
-9.76417e-05 0.000443625 -0.0005 -0.000412474 0.0002555 -0.0005 -0.000417974 0.000234974 -0.0005 
-0.000433 -0.00013725 -0.0005 -0.000433 -4.575e-05 -0.0005 -0.000433 4.575e-05 -0.0005 
-0.000433 0.00013725 -0.0005 -0.000417974 -0.000234974 -0.0005 -0.000412474 -0.0002555 -0.0005 
[...]
POINT_DATA 2586
VECTORS displacement float
-3.37527e-10 2.55153e-08 1.59808e-08
1.97547e-09 2.53465e-08 1.59964e-08
-2.12875e-08 1.58532e-08 1.67847e-08
-2.10851e-08 1.51081e-08 1.67919e-08
-2.23532e-08 1.3905e-08 1.72748e-08
-2.23765e-08 -1.39184e-08 1.72765e-08
-2.11088e-08 -1.5122e-08 1.67947e-08
-2.1311e-08 -1.58672e-08 1.67877e-08
-3.39596e-10 -2.54643e-08 1.60289e-08
1.96915e-09 -2.5372e-08 1.59537e-08
2.10823e-08 -1.31812e-08 1.59395e-08
2.22339e-08 -1.12017e-08 1.59808e-08
2.22628e-08 1.12155e-08 1.59881e-08
2.11039e-08 1.32278e-08 1.59873e-08
0 0 0
2.16113e-09 2.6002e-08 1.59581e-08
9.80753e-10 2.74928e-08 1.60175e-08
3.26715e-09 5.08427e-08 1.60292e-08
4.25663e-09 5.24834e-08 1.59205e-08
4.11291e-09 5.33661e-08 1.59438e-08
2.35008e-08 6.34446e-08 1.58374e-08
2.65799e-08 6.33554e-08 1.57633e-08
4.56835e-08 5.09761e-08 1.57764e-08
4.71256e-08 4.82673e-08 1.57976e-08
4.5729e-08 2.6394e-08 1.59711e-08
4.39916e-08 2.43806e-08 1.59514e-08
2.34402e-08 1.31622e-08 1.59418e-08
2.48556e-08 3.7339e-08 6.34986e-09
2.35739e-08 1.25344e-08 1.59168e-08
4.66365e-08 2.47952e-08 1.60043e-08
6.57523e-08 1.40672e-08 1.5791e-08
6.72928e-08 1.14187e-08 1.58118e-08
6.72753e-08 -1.1443e-08 1.58002e-08
6.57342e-08 -1.4096e-08 1.57817e-08
4.66189e-08 -2.48495e-08 1.59052e-08
4.39894e-08 -2.43683e-08 1.5978e-08
2.34222e-08 -1.31963e-08 1.59849e-08
2.355e-08 -1.25565e-08 1.59454e-08
4.54622e-08 9.58721e-12 6.33212e-09
4.572e-08 -2.63953e-08 1.59718e-08
4.71176e-08 -4.82854e-08 1.58167e-08
4.56707e-08 -5.09897e-08 1.57938e-08
2.65626e-08 -6.33521e-08 1.57613e-08
2.34832e-08 -6.34422e-08 1.58359e-08
4.09258e-09 -5.33563e-08 1.59396e-08
4.23569e-09 -5.24735e-08 1.59161e-08
3.24099e-09 -5.08301e-08 1.60222e-08
9.87047e-10 -2.74749e-08 1.60255e-08
2.16052e-09 -2.60162e-08 1.593e-08
2.48289e-08 -3.75252e-08 6.35041e-09
2.58183e-09 -5.34363e-08 1.6003e-08
-1.37398e-08 -6.7994e-08 1.58306e-08
-1.68123e-08 -6.83744e-08 1.59027e-08
-3.88716e-08 -6.14637e-08 1.58862e-08
-3.8894e-08 -6.05553e-08 1.5862e-08
-4.08433e-08 -5.88754e-08 1.59376e-08
-4.73133e-08 -3.72625e-08 1.70177e-08
-4.63183e-08 -3.52397e-08 1.73293e-08
-4.68668e-08 -3.46126e-08 1.75529e-08
-2.37202e-08 -1.63641e-08 1.72786e-08
-1.82222e-08 -4.14498e-08 6.40369e-09
-5.01579e-08 -3.56147e-08 1.81032e-08
-8.29992e-08 -2.04399e-08 1.9162e-08
-8.28201e-08 -1.95819e-08 1.9159e-08
-8.45862e-08 -1.78941e-08 1.91775e-08
-8.45821e-08 1.78874e-08 1.91777e-08
-8.28153e-08 1.95749e-08 1.91592e-08
-8.2994e-08 2.0433e-08 1.91622e-08
-5.00993e-08 3.55944e-08 1.80797e-08
-4.69079e-08 3.45961e-08 1.75828e-08
-2.36995e-08 1.63475e-08 1.72766e-08
-4.97951e-08 -5.33504e-12 1.80364e-08
-4.63509e-08 3.52236e-08 1.73525e-08
-4.73326e-08 3.72504e-08 1.70308e-08
-4.08176e-08 5.88586e-08 1.59384e-08
-3.88688e-08 6.05378e-08 1.58633e-08
-3.88464e-08 6.14464e-08 1.58875e-08
-1.69118e-08 6.83595e-08 1.58345e-08
-1.38396e-08 6.7999e-08 1.59073e-08
2.60288e-09 5.34458e-08 1.60115e-08
-1.82078e-08 4.14971e-08 6.40034e-09
-3.37527e-10 2.55153e-08 -1.59808e-08
1.97547e-09 2.53465e-08 -1.59964e-08
-2.12875e-08 1.58532e-08 -1.67847e-08
-2.10851e-08 1.51081e-08 -1.67919e-08
-2.23532e-08 1.3905e-08 -1.72748e-08
-2.23765e-08 -1.39184e-08 -1.72765e-08
-2.11088e-08 -1.5122e-08 -1.67947e-08
-2.1311e-08 -1.58672e-08 -1.67877e-08
-3.39596e-10 -2.54643e-08 -1.60289e-08
1.96915e-09 -2.5372e-08 -1.59537e-08
2.10823e-08 -1.31812e-08 -1.59395e-08
2.22339e-08 -1.12017e-08 -1.59808e-08
2.22628e-08 1.12155e-08 -1.59881e-08
2.11039e-08 1.32278e-08 -1.59873e-08
0 0 0
2.16113e-09 2.6002e-08 -1.59581e-08
9.80753e-10 2.74928e-08 -1.60175e-08
3.26715e-09 5.08427e-08 -1.60292e-08
4.25663e-09 5.24834e-08 -1.59205e-08
4.11291e-09 5.33661e-08 -1.59438e-08
2.35008e-08 6.34446e-08 -1.58374e-08
2.65799e-08 6.33554e-08 -1.57633e-08
4.56835e-08 5.09761e-08 -1.57764e-08
4.71256e-08 4.82673e-08 -1.57976e-08
4.5729e-08 2.6394e-08 -1.59711e-08
4.39916e-08 2.43806e-08 -1.59514e-08
2.34402e-08 1.31622e-08 -1.59418e-08
2.48556e-08 3.7339e-08 -6.34986e-09
2.35739e-08 1.25344e-08 -1.59168e-08
4.66365e-08 2.47952e-08 -1.60043e-08
6.57523e-08 1.40672e-08 -1.5791e-08
6.72928e-08 1.14187e-08 -1.58118e-08
6.72753e-08 -1.1443e-08 -1.58002e-08
6.57342e-08 -1.4096e-08 -1.57817e-08
4.66189e-08 -2.48495e-08 -1.59052e-08
4.39894e-08 -2.43683e-08 -1.5978e-08
2.34222e-08 -1.31963e-08 -1.59849e-08
2.355e-08 -1.25565e-08 -1.59454e-08
4.54622e-08 9.58721e-12 -6.33212e-09
4.572e-08 -2.63953e-08 -1.59718e-08
4.71176e-08 -4.82854e-08 -1.58167e-08
4.56707e-08 -5.09897e-08 -1.57938e-08
2.65626e-08 -6.33521e-08 -1.57613e-08
2.34832e-08 -6.34422e-08 -1.58359e-08
4.09258e-09 -5.33563e-08 -1.59396e-08
4.23569e-09 -5.24735e-08 -1.59161e-08
3.24099e-09 -5.08301e-08 -1.60222e-08
9.87047e-10 -2.74749e-08 -1.60255e-08
2.16052e-09 -2.60162e-08 -1.593e-08
2.48289e-08 -3.75252e-08 -6.35041e-09
2.58183e-09 -5.34363e-08 -1.6003e-08
-1.37398e-08 -6.7994e-08 -1.58306e-08
-1.68123e-08 -6.83744e-08 -1.59027e-08
-3.88716e-08 -6.14637e-08 -1.58862e-08
-3.8894e-08 -6.05553e-08 -1.5862e-08
-4.08433e-08 -5.88754e-08 -1.59376e-08
-4.73133e-08 -3.72625e-08 -1.70177e-08
-4.63183e-08 -3.52397e-08 -1.73293e-08
-4.68668e-08 -3.46126e-08 -1.75529e-08
-2.37202e-08 -1.63641e-08 -1.72786e-08
-1.82222e-08 -4.14498e-08 -6.40369e-09
-5.01579e-08 -3.56147e-08 -1.81032e-08
-8.29992e-08 -2.04399e-08 -1.9162e-08
-8.28201e-08 -1.95819e-08 -1.9159e-08
-8.45862e-08 -1.78941e-08 -1.91775e-08
-8.45821e-08 1.78874e-08 -1.91777e-08
-8.28153e-08 1.95749e-08 -1.91592e-08
-8.2994e-08 2.0433e-08 -1.91622e-08
-5.00993e-08 3.55944e-08 -1.80797e-08
-4.69079e-08 3.45961e-08 -1.75828e-08
-2.36995e-08 1.63475e-08 -1.72766e-08
-4.97951e-08 -5.33504e-12 -1.80364e-08
-4.63509e-08 3.52236e-08 -1.73525e-08
-4.73326e-08 3.72504e-08 -1.70308e-08
-4.08176e-08 5.88586e-08 -1.59384e-08
-3.88688e-08 6.05378e-08 -1.58633e-08
-3.88464e-08 6.14464e-08 -1.58875e-08
-1.69118e-08 6.83595e-08 -1.58345e-08
-1.38396e-08 6.7999e-08 -1.59073e-08
2.60288e-09 5.34458e-08 -1.60115e-08
-1.82078e-08 4.14971e-08 -6.40034e-09
7.95988e-10 2.48377e-08 1.59183e-08
-1.63607e-08 1.81688e-08 1.53956e-08
-1.25026e-08 1.98158e-08 1.42884e-08
-8.93707e-09 2.13752e-08 1.4162e-08
-5.16437e-09 2.30825e-08 1.49935e-08
-2.11206e-08 1.54707e-08 1.67949e-08
-2.14527e-08 1.42211e-08 1.69684e-08
-2.24034e-08 -7.84063e-09 1.67704e-08
-2.23192e-08 -2.55423e-09 1.63301e-08
-2.2308e-08 2.54384e-09 1.63144e-08
-2.2389e-08 7.82805e-09 1.67755e-08
-2.14763e-08 -1.42348e-08 1.69706e-08
-2.11442e-08 -1.54848e-08 1.67978e-08
-5.15727e-09 -2.3085e-08 1.49886e-08
-8.9521e-09 -2.13678e-08 1.42098e-08
-1.25252e-08 -1.98202e-08 1.42967e-08
-1.63845e-08 -1.81799e-08 1.54002e-08
7.72192e-10 -2.48231e-08 1.59211e-08
1.65106e-08 -1.59493e-08 1.48861e-08
1.30553e-08 -1.80529e-08 1.39614e-08
9.87744e-09 -2.00978e-08 1.39635e-08
6.47151e-09 -2.23257e-08 1.48978e-08
2.10878e-08 -1.18916e-08 1.59183e-08
2.20739e-08 5.89394e-09 1.48743e-08
2.20399e-08 1.86226e-09 1.39773e-08
2.20251e-08 -1.86007e-09 1.40113e-08
2.20701e-08 -5.88522e-09 1.48609e-08
2.11169e-08 1.19197e-08 1.594e-08
6.47271e-09 2.23549e-08 1.4885e-08
9.88936e-09 2.01195e-08 1.40073e-08
1.30776e-08 1.80813e-08 1.4007e-08
1.65435e-08 1.59504e-08 1.48791e-08
0 0 0
0 0 0
0 0 0
2.14865e-09 2.56914e-08 1.59989e-08
1.77557e-09 2.69149e-08 1.59298e-08
1.30773e-09 3.29121e-08 1.49217e-08
1.75138e-09 3.70574e-08 1.40881e-08
2.2306e-09 4.0928e-08 1.40589e-08
2.69259e-09 4.51746e-08 1.49438e-08
3.93039e-09 5.13716e-08 1.59251e-08
4.21988e-09 5.29326e-08 1.59498e-08
9.48079e-09 5.45931e-08 1.49891e-08
1.32185e-08 5.52782e-08 1.42317e-08
1.6163e-08 5.68606e-08 1.42381e-08
1.91409e-08 5.95849e-08 1.4911e-08
2.49542e-08 6.27214e-08 1.57357e-08
3.06442e-08 5.91369e-08 1.49326e-08
3.34729e-08 5.60261e-08 1.41564e-08
3.6354e-08 5.41026e-08 1.41715e-08
4.0178e-08 5.28788e-08 1.4875e-08
4.58145e-08 4.92658e-08 1.5748e-08
4.55116e-08 4.25592e-08 1.48909e-08
4.41031e-08 3.86783e-08 1.42641e-08
4.38346e-08 3.53091e-08 1.42373e-08
4.46065e-08 3.15988e-08 1.50213e-08
4.42875e-08 2.56545e-08 1.59227e-08
2.81917e-08 1.58419e-08 1.49082e-08
3.18292e-08 1.77704e-08 1.39881e-08
3.52472e-08 1.96038e-08 1.39998e-08
3.9003e-08 2.16161e-08 1.49169e-08
2.22835e-08 1.3755e-08 1.58966e-08
2.37444e-08 3.90555e-08 6.44294e-09
2.19094e-08 3.7575e-08 6.3699e-09
2.32861e-08 3.59745e-08 6.28606e-09
2.31005e-08 1.17075e-08 1.59014e-08
2.35931e-08 1.28245e-08 1.595e-08
4.52316e-08 2.39718e-08 1.59065e-08
5.04498e-08 2.10254e-08 1.50178e-08
5.32029e-08 1.83227e-08 1.42838e-08
5.61566e-08 1.66825e-08 1.42141e-08
6.01091e-08 1.57276e-08 1.48956e-08
6.59462e-08 1.23599e-08 1.57635e-08
6.59526e-08 5.70209e-09 1.49037e-08
6.48996e-08 1.71223e-09 1.41692e-08
6.48515e-08 -1.78161e-09 1.42307e-08
6.59541e-08 -5.71895e-09 1.48817e-08
6.59306e-08 -1.23854e-08 1.57523e-08
6.00857e-08 -1.57575e-08 1.48939e-08
5.61293e-08 -1.67048e-08 1.42115e-08
5.31723e-08 -1.83091e-08 1.42281e-08
5.04247e-08 -2.10291e-08 1.50466e-08
4.51555e-08 -2.40212e-08 1.58777e-08
2.81637e-08 -1.58274e-08 1.48973e-08
3.18083e-08 -1.77729e-08 1.40346e-08
3.52324e-08 -1.96073e-08 1.40416e-08
3.89901e-08 -2.16199e-08 1.48965e-08
2.35712e-08 -1.28533e-08 1.59875e-08
2.30709e-08 -1.17086e-08 1.59064e-08
4.40486e-08 1.40752e-09 6.38536e-09
4.22906e-08 9.87124e-11 6.4315e-09
4.38958e-08 -1.48925e-09 6.39484e-09
2.22901e-08 -1.37458e-08 1.58946e-08
4.42803e-08 -2.56502e-08 1.59279e-08
4.46049e-08 -3.16089e-08 1.49994e-08
4.37792e-08 -3.52825e-08 1.4303e-08
4.41392e-08 -3.86376e-08 1.42052e-08
4.54921e-08 -4.25792e-08 1.49191e-08
4.58028e-08 -4.92814e-08 1.57672e-08
4.01567e-08 -5.28733e-08 1.48905e-08
3.63285e-08 -5.41038e-08 1.41783e-08
3.34488e-08 -5.60207e-08 1.41463e-08
3.06253e-08 -5.91326e-08 1.49275e-08
2.49366e-08 -6.27186e-08 1.5734e-08
1.91208e-08 -5.95833e-08 1.4912e-08
1.61417e-08 -5.6853e-08 1.42403e-08
1.32003e-08 -5.52663e-08 1.42326e-08
9.46377e-09 -5.45823e-08 1.49878e-08
4.19937e-09 -5.29228e-08 1.59456e-08
3.90723e-09 -5.13606e-08 1.59195e-08
1.295e-09 -3.29013e-08 1.49352e-08
1.75248e-09 -3.70574e-08 1.40556e-08
2.20414e-09 -4.09243e-08 1.40923e-08
2.68443e-09 -4.51654e-08 1.49314e-08
1.7813e-09 -2.69102e-08 1.59255e-08
2.14613e-09 -2.57119e-08 1.59618e-08
2.3392e-08 -3.58958e-08 6.41763e-09
2.18931e-08 -3.74889e-08 6.36956e-09
2.36062e-08 -3.89849e-08 6.31271e-09
-2.02769e-10 -2.68223e-08 1.59901e-08
2.36053e-09 -5.17822e-08 1.59766e-08
-2.15879e-09 -5.54628e-08 1.50691e-08
-5.33754e-09 -5.70295e-08 1.43224e-08
-7.6949e-09 -5.94557e-08 1.4271e-08
-1.00771e-08 -6.31621e-08 1.50188e-08
-1.54466e-08 -6.75056e-08 1.58027e-08
-2.15164e-08 -6.51517e-08 1.49827e-08
-2.48748e-08 -6.30978e-08 1.43108e-08
-2.8289e-08 -6.21933e-08 1.42867e-08
-3.26628e-08 -6.21365e-08 1.49959e-08
-3.88243e-08 -6.10103e-08 1.58917e-08
-3.96628e-08 -5.93872e-08 1.58537e-08
-4.04573e-08 -5.31907e-08 1.51096e-08
-4.04381e-08 -4.93546e-08 1.4572e-08
-4.15991e-08 -4.60298e-08 1.47654e-08
-4.40329e-08 -4.24355e-08 1.56971e-08
-4.63661e-08 -3.63361e-08 1.70276e-08
-4.6537e-08 -3.49039e-08 1.74658e-08
-2.87389e-08 -2.0106e-08 1.68325e-08
-3.31186e-08 -2.34766e-08 1.64169e-08
-3.74191e-08 -2.67837e-08 1.64367e-08
-4.19186e-08 -3.02692e-08 1.69579e-08
-2.25252e-08 -1.67707e-08 1.69079e-08
-1.99269e-08 -4.0284e-08 6.61839e-09
-2.13367e-08 -4.25158e-08 6.62049e-09
-1.94481e-08 -4.34977e-08 6.43186e-09
-2.35904e-08 -1.49047e-08 1.74072e-08
-4.8776e-08 -3.44302e-08 1.79245e-08
-5.71735e-08 -3.29363e-08 1.83788e-08
-6.37527e-08 -2.99774e-08 1.8528e-08
-7.01754e-08 -2.6888e-08 1.87129e-08
-7.65475e-08 -2.3717e-08 1.89557e-08
-8.28523e-08 -2.00249e-08 1.91636e-08
-8.33786e-08 -1.83817e-08 1.91617e-08
-8.46879e-08 -1.06656e-08 1.90547e-08
-8.47391e-08 -3.55314e-09 1.8964e-08
-8.47389e-08 3.54496e-09 1.89635e-08
-8.46858e-08 1.06579e-08 1.90548e-08
-8.33743e-08 1.83748e-08 1.91619e-08
-8.28473e-08 2.0018e-08 1.91638e-08
-7.654e-08 2.37082e-08 1.89559e-08
-7.01659e-08 2.68744e-08 1.87113e-08
-6.37483e-08 2.99663e-08 1.85196e-08
-5.71716e-08 3.2939e-08 1.83823e-08
-4.87127e-08 3.44087e-08 1.79089e-08
-2.872e-08 2.00841e-08 1.68325e-08
-3.31024e-08 2.34509e-08 1.64204e-08
-3.74049e-08 2.67564e-08 1.64558e-08
-4.19046e-08 3.02516e-08 1.69577e-08
-2.35724e-08 1.48893e-08 1.74059e-08
-5.27334e-08 3.01833e-09 1.81789e-08
-5.57649e-08 -3.14025e-12 1.83353e-08
-5.273e-08 -3.02977e-09 1.81858e-08
-2.25029e-08 1.67554e-08 1.69052e-08
-4.65754e-08 3.48861e-08 1.74928e-08
-4.63876e-08 3.63218e-08 1.70426e-08
-4.40404e-08 4.24215e-08 1.57048e-08
-4.15966e-08 4.60288e-08 1.47676e-08
-4.04223e-08 4.93518e-08 1.45767e-08
-4.04354e-08 5.31765e-08 1.511e-08
-3.96375e-08 5.937e-08 1.58547e-08
-3.87992e-08 6.09929e-08 1.5893e-08
-3.264e-08 6.21131e-08 1.49996e-08
-2.82665e-08 6.21693e-08 1.42859e-08
-2.48646e-08 6.3027e-08 1.42563e-08
-2.15058e-08 6.51222e-08 1.50185e-08
-1.54192e-08 6.75006e-08 1.5807e-08
-1.00694e-08 6.31756e-08 1.49915e-08
-7.68591e-09 5.95177e-08 1.43322e-08
-5.31802e-09 5.70514e-08 1.43316e-08
-2.13447e-09 5.54747e-08 1.50753e-08
2.37862e-09 5.1793e-08 1.59859e-08
-2.0971e-10 2.6854e-08 1.59675e-08
-1.92648e-08 4.35503e-08 6.53578e-09
-2.1321e-08 4.23032e-08 6.62298e-09
-2.00706e-08 4.03475e-08 6.51268e-09
7.95988e-10 2.48377e-08 -1.59183e-08
-1.63607e-08 1.81688e-08 -1.53956e-08
-1.25026e-08 1.98158e-08 -1.42884e-08
-8.93707e-09 2.13752e-08 -1.4162e-08
-5.16437e-09 2.30825e-08 -1.49935e-08
-2.11206e-08 1.54707e-08 -1.67949e-08
-2.14527e-08 1.42211e-08 -1.69684e-08
-2.24034e-08 -7.84063e-09 -1.67704e-08
-2.23192e-08 -2.55423e-09 -1.63301e-08
-2.2308e-08 2.54384e-09 -1.63144e-08
-2.2389e-08 7.82805e-09 -1.67755e-08
-2.14763e-08 -1.42348e-08 -1.69706e-08
-2.11442e-08 -1.54848e-08 -1.67978e-08
-5.15727e-09 -2.3085e-08 -1.49886e-08
-8.9521e-09 -2.13678e-08 -1.42098e-08
-1.25252e-08 -1.98202e-08 -1.42967e-08
-1.63845e-08 -1.81799e-08 -1.54002e-08
7.72192e-10 -2.48231e-08 -1.59211e-08
1.65106e-08 -1.59493e-08 -1.48861e-08
1.30553e-08 -1.80529e-08 -1.39614e-08
9.87744e-09 -2.00978e-08 -1.39635e-08
6.47151e-09 -2.23257e-08 -1.48978e-08
2.10878e-08 -1.18916e-08 -1.59183e-08
2.20739e-08 5.89394e-09 -1.48743e-08
2.20399e-08 1.86226e-09 -1.39773e-08
2.20251e-08 -1.86007e-09 -1.40113e-08
2.20701e-08 -5.88522e-09 -1.48609e-08
2.11169e-08 1.19197e-08 -1.594e-08
6.47271e-09 2.23549e-08 -1.4885e-08
9.88936e-09 2.01195e-08 -1.40073e-08
1.30776e-08 1.80813e-08 -1.4007e-08
1.65435e-08 1.59504e-08 -1.48791e-08
0 0 0
0 0 0
0 0 0
2.14865e-09 2.56914e-08 -1.59989e-08
1.77557e-09 2.69149e-08 -1.59298e-08
1.30773e-09 3.29121e-08 -1.49217e-08
1.75138e-09 3.70574e-08 -1.40881e-08
2.2306e-09 4.0928e-08 -1.40589e-08
2.69259e-09 4.51746e-08 -1.49438e-08
3.93039e-09 5.13716e-08 -1.59251e-08
4.21988e-09 5.29326e-08 -1.59498e-08
9.48079e-09 5.45931e-08 -1.49891e-08
1.32185e-08 5.52782e-08 -1.42317e-08
1.6163e-08 5.68606e-08 -1.42381e-08
1.91409e-08 5.95849e-08 -1.4911e-08
2.49542e-08 6.27214e-08 -1.57357e-08
3.06442e-08 5.91369e-08 -1.49326e-08
3.34729e-08 5.60261e-08 -1.41564e-08
3.6354e-08 5.41026e-08 -1.41715e-08
4.0178e-08 5.28788e-08 -1.4875e-08
4.58145e-08 4.92658e-08 -1.5748e-08
4.55116e-08 4.25592e-08 -1.48909e-08
4.41031e-08 3.86783e-08 -1.42641e-08
4.38346e-08 3.53091e-08 -1.42373e-08
4.46065e-08 3.15988e-08 -1.50213e-08
4.42875e-08 2.56545e-08 -1.59227e-08
2.81917e-08 1.58419e-08 -1.49082e-08
3.18292e-08 1.77704e-08 -1.39881e-08
3.52472e-08 1.96038e-08 -1.39998e-08
3.9003e-08 2.16161e-08 -1.49169e-08
2.22835e-08 1.3755e-08 -1.58966e-08
2.37444e-08 3.90555e-08 -6.44294e-09
2.19094e-08 3.7575e-08 -6.3699e-09
2.32861e-08 3.59745e-08 -6.28606e-09
2.31005e-08 1.17075e-08 -1.59014e-08
2.35931e-08 1.28245e-08 -1.595e-08
4.52316e-08 2.39718e-08 -1.59065e-08
5.04498e-08 2.10254e-08 -1.50178e-08
5.32029e-08 1.83227e-08 -1.42838e-08
5.61566e-08 1.66825e-08 -1.42141e-08
6.01091e-08 1.57276e-08 -1.48956e-08
6.59462e-08 1.23599e-08 -1.57635e-08
6.59526e-08 5.70209e-09 -1.49037e-08
6.48996e-08 1.71223e-09 -1.41692e-08
6.48515e-08 -1.78161e-09 -1.42307e-08
6.59541e-08 -5.71895e-09 -1.48817e-08
6.59306e-08 -1.23854e-08 -1.57523e-08
6.00857e-08 -1.57575e-08 -1.48939e-08
5.61293e-08 -1.67048e-08 -1.42115e-08
5.31723e-08 -1.83091e-08 -1.42281e-08
5.04247e-08 -2.10291e-08 -1.50466e-08
4.51555e-08 -2.40212e-08 -1.58777e-08
2.81637e-08 -1.58274e-08 -1.48973e-08
3.18083e-08 -1.77729e-08 -1.40346e-08
3.52324e-08 -1.96073e-08 -1.40416e-08
3.89901e-08 -2.16199e-08 -1.48965e-08
2.35712e-08 -1.28533e-08 -1.59875e-08
2.30709e-08 -1.17086e-08 -1.59064e-08
4.40486e-08 1.40752e-09 -6.38536e-09
4.22906e-08 9.87124e-11 -6.4315e-09
4.38958e-08 -1.48925e-09 -6.39484e-09
2.22901e-08 -1.37458e-08 -1.58946e-08
4.42803e-08 -2.56502e-08 -1.59279e-08
4.46049e-08 -3.16089e-08 -1.49994e-08
4.37792e-08 -3.52825e-08 -1.4303e-08
4.41392e-08 -3.86376e-08 -1.42052e-08
4.54921e-08 -4.25792e-08 -1.49191e-08
4.58028e-08 -4.92814e-08 -1.57672e-08
4.01567e-08 -5.28733e-08 -1.48905e-08
3.63285e-08 -5.41038e-08 -1.41783e-08
3.34488e-08 -5.60207e-08 -1.41463e-08
3.06253e-08 -5.91326e-08 -1.49275e-08
2.49366e-08 -6.27186e-08 -1.5734e-08
1.91208e-08 -5.95833e-08 -1.4912e-08
1.61417e-08 -5.6853e-08 -1.42403e-08
1.32003e-08 -5.52663e-08 -1.42326e-08
9.46377e-09 -5.45823e-08 -1.49878e-08
4.19937e-09 -5.29228e-08 -1.59456e-08
3.90723e-09 -5.13606e-08 -1.59195e-08
1.295e-09 -3.29013e-08 -1.49352e-08
1.75248e-09 -3.70574e-08 -1.40556e-08
2.20414e-09 -4.09243e-08 -1.40923e-08
2.68443e-09 -4.51654e-08 -1.49314e-08
1.7813e-09 -2.69102e-08 -1.59255e-08
2.14613e-09 -2.57119e-08 -1.59618e-08
2.3392e-08 -3.58958e-08 -6.41763e-09
2.18931e-08 -3.74889e-08 -6.36956e-09
2.36062e-08 -3.89849e-08 -6.31271e-09
-2.02769e-10 -2.68223e-08 -1.59901e-08
2.36053e-09 -5.17822e-08 -1.59766e-08
-2.15879e-09 -5.54628e-08 -1.50691e-08
-5.33754e-09 -5.70295e-08 -1.43224e-08
-7.6949e-09 -5.94557e-08 -1.4271e-08
-1.00771e-08 -6.31621e-08 -1.50188e-08
-1.54466e-08 -6.75056e-08 -1.58027e-08
-2.15164e-08 -6.51517e-08 -1.49827e-08
-2.48748e-08 -6.30978e-08 -1.43108e-08
-2.8289e-08 -6.21933e-08 -1.42867e-08
-3.26628e-08 -6.21365e-08 -1.49959e-08
-3.88243e-08 -6.10103e-08 -1.58917e-08
-3.96628e-08 -5.93872e-08 -1.58537e-08
-4.04573e-08 -5.31907e-08 -1.51096e-08
-4.04381e-08 -4.93546e-08 -1.4572e-08
-4.15991e-08 -4.60298e-08 -1.47654e-08
-4.40329e-08 -4.24355e-08 -1.56971e-08
-4.63661e-08 -3.63361e-08 -1.70276e-08
-4.6537e-08 -3.49039e-08 -1.74658e-08
-2.87389e-08 -2.0106e-08 -1.68325e-08
-3.31186e-08 -2.34766e-08 -1.64169e-08
-3.74191e-08 -2.67837e-08 -1.64367e-08
-4.19186e-08 -3.02692e-08 -1.69579e-08
-2.25252e-08 -1.67707e-08 -1.69079e-08
-1.99269e-08 -4.0284e-08 -6.61839e-09
-2.13367e-08 -4.25158e-08 -6.62049e-09
-1.94481e-08 -4.34977e-08 -6.43186e-09
-2.35904e-08 -1.49047e-08 -1.74072e-08
-4.8776e-08 -3.44302e-08 -1.79245e-08
-5.71735e-08 -3.29363e-08 -1.83788e-08
-6.37527e-08 -2.99774e-08 -1.8528e-08
-7.01754e-08 -2.6888e-08 -1.87129e-08
-7.65475e-08 -2.3717e-08 -1.89557e-08
-8.28523e-08 -2.00249e-08 -1.91636e-08
-8.33786e-08 -1.83817e-08 -1.91617e-08
-8.46879e-08 -1.06656e-08 -1.90547e-08
-8.47391e-08 -3.55314e-09 -1.8964e-08
-8.47389e-08 3.54496e-09 -1.89635e-08
-8.46858e-08 1.06579e-08 -1.90548e-08
-8.33743e-08 1.83748e-08 -1.91619e-08
-8.28473e-08 2.0018e-08 -1.91638e-08
-7.654e-08 2.37082e-08 -1.89559e-08
-7.01659e-08 2.68744e-08 -1.87113e-08
-6.37483e-08 2.99663e-08 -1.85196e-08
-5.71716e-08 3.2939e-08 -1.83823e-08
-4.87127e-08 3.44087e-08 -1.79089e-08
-2.872e-08 2.00841e-08 -1.68325e-08
-3.31024e-08 2.34509e-08 -1.64204e-08
-3.74049e-08 2.67564e-08 -1.64558e-08
-4.19046e-08 3.02516e-08 -1.69577e-08
-2.35724e-08 1.48893e-08 -1.74059e-08