# vtk DataFile Version 3.0
vtk output at time 0.9
ASCII
DATASET UNSTRUCTURED_GRID
POINTS 2586 float
-1.84029e-05 0.000489375 0 1.84029e-05 0.000489375 0 -0.000414597 0.000260625 0 
-0.00041175 0.00025 0 -0.000433 0.00022875 0 -0.000433 -0.00022875 0 
-0.00041175 -0.00025 0 -0.000414597 -0.000260625 0 -1.84029e-05 -0.000489375 0 
1.84029e-05 -0.000489375 0 0.000414597 -0.000260625 0 0.000433 -0.00022875 0 
0.000433 0.00022875 0 0.000414597 0.000260625 0 4.25e-05 0 0 
2.125e-05 0.0005 0 5.90898e-17 0.00052125 0 5.90919e-17 0.00097875 0 
2.125e-05 0.001 0 1.84029e-05 0.00101063 0 0.000414597 0.00123937 0 
0.000451403 0.00123937 0 0.000847597 0.00101063 0 0.000866 0.00097875 0 
0.000866 0.00052125 0 0.000847597 0.000489375 0 0.000451403 0.000260625 0 
0.0004755 0.00075 0 0.00045425 0.00025 0 0.000884403 0.000489375 0 
0.0012806 0.000260625 0 0.001299 0.00022875 0 0.001299 -0.00022875 0 
0.0012806 -0.000260625 0 0.000884403 -0.000489375 0 0.000847597 -0.000489375 0 
0.000451403 -0.000260625 0 0.00045425 -0.00025 0 0.0009085 0 0 
0.000866 -0.00052125 0 0.000866 -0.00097875 0 0.000847597 -0.00101063 0 
0.000451403 -0.00123937 0 0.000414597 -0.00123937 0 1.84029e-05 -0.00101063 0 
2.125e-05 -0.001 0 5.90898e-17 -0.00097875 0 5.90919e-17 -0.00052125 0 
2.125e-05 -0.0005 0 0.0004755 -0.00075 0 -1.84029e-05 -0.00101063 0 
-0.000414597 -0.00123937 0 -0.000451403 -0.00123937 0 -0.000847597 -0.00101063 0 
-0.00084475 -0.001 0 -0.000866 -0.00097875 0 -0.000866 -0.00052125 0 
-0.00084475 -0.0005 0 -0.000847597 -0.000489375 0 -0.000451403 -0.000260625 0 
-0.0003905 -0.00075 0 -0.000884403 -0.000489375 0 -0.0012806 -0.000260625 0 
-0.00127775 -0.00025 0 -0.001299 -0.00022875 0 -0.001299 0.00022875 0 
-0.00127775 0.00025 0 -0.0012806 0.000260625 0 -0.000884403 0.000489375 0 
-0.000847597 0.000489375 0 -0.000451403 0.000260625 0 -0.0008235 0 0 
-0.00084475 0.0005 0 -0.000866 0.00052125 0 -0.000866 0.00097875 0 
-0.00084475 0.001 0 -0.000847597 0.00101063 0 -0.000451403 0.00123937 0 
-0.000414597 0.00123937 0 -1.84029e-05 0.00101063 0 -0.0003905 0.00075 0 
-1.84029e-05 0.000489375 -0.0005 1.84029e-05 0.000489375 -0.0005 -0.000414597 0.000260625 -0.0005 
-0.00041175 0.00025 -0.0005 -0.000433 0.00022875 -0.0005 -0.000433 -0.00022875 -0.0005 
-0.00041175 -0.00025 -0.0005 -0.000414597 -0.000260625 -0.0005 -1.84029e-05 -0.000489375 -0.0005 
1.84029e-05 -0.000489375 -0.0005 0.000414597 -0.000260625 -0.0005 0.000433 -0.00022875 -0.0005 
0.000433 0.00022875 -0.0005 0.000414597 0.000260625 -0.0005 4.25e-05 0 -0.0005 
2.125e-05 0.0005 -0.0005 5.90898e-17 0.00052125 -0.0005 5.90919e-17 0.00097875 -0.0005 
2.125e-05 0.001 -0.0005 1.84029e-05 0.00101063 -0.0005 0.000414597 0.00123937 -0.0005 
0.000451403 0.00123937 -0.0005 0.000847597 0.00101063 -0.0005 0.000866 0.00097875 -0.0005 
0.000866 0.00052125 -0.0005 0.000847597 0.000489375 -0.0005 0.000451403 0.000260625 -0.0005 
0.0004755 0.00075 -0.0005 0.00045425 0.00025 -0.0005 0.000884403 0.000489375 -0.0005 
0.0012806 0.000260625 -0.0005 0.001299 0.00022875 -0.0005 0.001299 -0.00022875 -0.0005 
0.0012806 -0.000260625 -0.0005 0.000884403 -0.000489375 -0.0005 0.000847597 -0.000489375 -0.0005 
0.000451403 -0.000260625 -0.0005 0.00045425 -0.00025 -0.0005 0.0009085 0 -0.0005 
0.000866 -0.00052125 -0.0005 0.000866 -0.00097875 -0.0005 0.000847597 -0.00101063 -0.0005 
0.000451403 -0.00123937 -0.0005 0.000414597 -0.00123937 -0.0005 1.84029e-05 -0.00101063 -0.0005 
2.125e-05 -0.001 -0.0005 5.90898e-17 -0.00097875 -0.0005 5.90919e-17 -0.00052125 -0.0005 
2.125e-05 -0.0005 -0.0005 0.0004755 -0.00075 -0.0005 -1.84029e-05 -0.00101063 -0.0005 
-0.000414597 -0.00123937 -0.0005 -0.000451403 -0.00123937 -0.0005 -0.000847597 -0.00101063 -0.0005 
-0.00084475 -0.001 -0.0005 -0.000866 -0.00097875 -0.0005 -0.000866 -0.00052125 -0.0005 
-0.00084475 -0.0005 -0.0005 -0.000847597 -0.000489375 -0.0005 -0.000451403 -0.000260625 -0.0005 
-0.0003905 -0.00075 -0.0005 -0.000884403 -0.000489375 -0.0005 -0.0012806 -0.000260625 -0.0005 
-0.00127775 -0.00025 -0.0005 -0.001299 -0.00022875 -0.0005 -0.001299 0.00022875 -0.0005 
-0.00127775 0.00025 -0.0005 -0.0012806 0.000260625 -0.0005 -0.000884403 0.000489375 -0.0005 
-0.000847597 0.000489375 -0.0005 -0.000451403 0.000260625 -0.0005 -0.0008235 0 -0.0005 
-0.00084475 0.0005 -0.0005 -0.000866 0.00052125 -0.0005 -0.000866 0.00097875 -0.0005 
-0.00084475 0.001 -0.0005 -0.000847597 0.00101063 -0.0005 -0.000451403 0.00123937 -0.0005 
-0.000414597 0.00123937 -0.0005 -1.84029e-05 0.00101063 -0.0005 -0.0003905 0.00075 -0.0005 
-9.82724e-20 0.00047875 0 -0.000335358 0.000306375 0 -0.000256119 0.000352125 0 
-0.000176881 0.000397875 0 -9.76417e-05 0.000443625 0 -0.000412474 0.0002555 0 
-0.000417974 0.000234974 0 -0.000433 -0.00013725 0 -0.000433 -4.575e-05 0 
-0.000433 4.575e-05 0 -0.000433 0.00013725 0 -0.000417974 -0.000234974 0 
-0.000412474 -0.0002555 0 -9.76417e-05 -0.000443625 0 -0.000176881 -0.000397875 0 
-0.000256119 -0.000352125 0 -0.000335358 -0.000306375 0 -1.07223e-19 -0.00047875 0 
0.000335358 -0.000306375 0 0.000256119 -0.000352125 0 0.000176881 -0.000397875 0 
9.76417e-05 -0.000443625 0 0.000414597 -0.000239375 0 0.000433 0.00013725 0 
0.000433 4.575e-05 0 0.000433 -4.575e-05 0 0.000433 -0.00013725 0 
0.000414597 0.000239375 0 9.76417e-05 0.000443625 0 0.000176881 0.000397875 0 
0.000256119 0.000352125 0 0.000335358 0.000306375 0 -1.29514e-19 4.25e-05 0 
-4.25e-05 -3.53397e-19 0 4.07417e-19 -4.25e-05 0 2.05259e-05 0.0004945 0 
1.5026e-05 0.000515026 0 0 0.00061275 0 0 0.00070425 0 
0 0.00079575 0 0 0.00088725 0 1.5026e-05 0.000984974 0 
2.05259e-05 0.0010055 0 9.76417e-05 0.00105638 0 0.000176881 0.00110213 0 
0.000256119 0.00114787 0 0.000335358 0.00119362 0 0.000433 0.00122875 0 
0.000530642 0.00119362 0 0.000609881 0.00114787 0 0.000689119 0.00110213 0 
0.000768358 0.00105638 0 0.000847597 0.000989375 0 0.000866 0.00088725 0 
0.000866 0.00079575 0 0.000866 0.00070425 0 0.000866 0.00061275 0 
0.000847597 0.000510625 0 0.000530642 0.000306375 0 0.000609881 0.000352125 0 
0.000689119 0.000397875 0 0.000768358 0.000443625 0 0.000433 0.00027125 0 
0.000433 0.0007925 0 0.0003905 0.00075 0 0.000433 0.0007075 0 
0.000448026 0.000234974 0 0.000453526 0.0002555 0 0.000866 0.00047875 0 
0.000963642 0.000443625 0 0.00104288 0.000397875 0 0.00112212 0.000352125 0 
0.00120136 0.000306375 0 0.0012806 0.000239375 0 0.001299 0.00013725 0 
0.001299 4.575e-05 0 0.001299 -4.575e-05 0 0.001299 -0.00013725 0 
0.0012806 -0.000239375 0 0.00120136 -0.000306375 0 0.00112212 -0.000352125 0 
0.00104288 -0.000397875 0 0.000963642 -0.000443625 0 0.000866 -0.00047875 0 
0.000530642 -0.000306375 0 0.000609881 -0.000352125 0 0.000689119 -0.000397875 0 
0.000768358 -0.000443625 0 0.000453526 -0.0002555 0 0.000448026 -0.000234974 0 
0.000866 4.25e-05 0 0.0008235 -3.53397e-19 0 0.000866 -4.25e-05 0 
0.000433 -0.00027125 0 0.000847597 -0.000510625 0 0.000866 -0.00061275 0 
0.000866 -0.00070425 0 0.000866 -0.00079575 0 0.000866 -0.00088725 0 
0.000847597 -0.000989375 0 0.000768358 -0.00105638 0 0.000689119 -0.00110213 0 
0.000609881 -0.00114787 0 0.000530642 -0.00119362 0 0.000433 -0.00122875 0 
0.000335358 -0.00119362 0 0.000256119 -0.00114787 0 0.000176881 -0.00110213 0 
9.76417e-05 -0.00105638 0 2.05259e-05 -0.0010055 0 1.5026e-05 -0.000984974 0 
0 -0.00061275 0 0 -0.00070425 0 0 -0.00079575 0 
0 -0.00088725 0 1.5026e-05 -0.000515026 0 2.05259e-05 -0.0004945 0 
0.000433 -0.0007075 0 0.0003905 -0.00075 0 0.000433 -0.0007925 0 
-1.84031e-05 -0.000510625 0 -1.84031e-05 -0.000989375 0 -9.76417e-05 -0.00105638 0 
-0.000176881 -0.00110213 0 -0.000256119 -0.00114787 0 -0.000335358 -0.00119362 0 
-0.000433 -0.00122875 0 -0.000530642 -0.00119362 0 -0.000609881 -0.00114787 0 
-0.000689119 -0.00110213 0 -0.000768358 -0.00105638 0 -0.000845474 -0.0010055 0 
-0.000850974 -0.000984974 0 -0.000866 -0.00088725 0 -0.000866 -0.00079575 0 
-0.000866 -0.00070425 0 -0.000866 -0.00061275 0 -0.000850974 -0.000515026 0 
-0.000845474 -0.0004945 0 -0.000530642 -0.000306375 0 -0.000609881 -0.000352125 0 
-0.000689119 -0.000397875 0 -0.000768358 -0.000443625 0 -0.000433 -0.00027125 0 
-0.000433 -0.0007075 0 -0.0004755 -0.00075 0 -0.000433 -0.0007925 0 
-0.000451403 -0.000239375 0 -0.000866 -0.00047875 0 -0.000963642 -0.000443625 0 
-0.00104288 -0.000397875 0 -0.00112212 -0.000352125 0 -0.00120136 -0.000306375 0 
-0.00127847 -0.0002555 0 -0.00128397 -0.000234974 0 -0.001299 -0.00013725 0 
-0.001299 -4.575e-05 0 -0.001299 4.575e-05 0 -0.001299 0.00013725 0 
-0.00128397 0.000234974 0 -0.00127847 0.0002555 0 -0.00120136 0.000306375 0 
-0.00112212 0.000352125 0 -0.00104288 0.000397875 0 -0.000963642 0.000443625 0 
-0.000866 0.00047875 0 -0.000530642 0.000306375 0 -0.000609881 0.000352125 0 
-0.000689119 0.000397875 0 -0.000768358 0.000443625 0 -0.000451403 0.000239375 0 
-0.000866 4.25e-05 0 -0.0009085 -3.53397e-19 0 -0.000866 -4.25e-05 0 
-0.000433 0.00027125 0 -0.000845474 0.0004945 0 -0.000850974 0.000515026 0 
-0.000866 0.00061275 0 -0.000866 0.00070425 0 -0.000866 0.00079575 0 
-0.000866 0.00088725 0 -0.000850974 0.000984974 0 -0.000845474 0.0010055 0 
-0.000768358 0.00105638 0 -0.000689119 0.00110213 0 -0.000609881 0.00114787 0 
-0.000530642 0.00119362 0 -0.000433 0.00122875 0 -0.000335358 0.00119362 0 
-0.000256119 0.00114787 0 -0.000176881 0.00110213 0 -9.76417e-05 0.00105638 0 
-1.84031e-05 0.000989375 0 -1.84031e-05 0.000510625 0 -0.000433 0.0007925 0 
-0.0004755 0.00075 0 -0.000433 0.0007075 0 -9.82724e-20 0.00047875 -0.0005 
-0.000335358 0.000306375 -0.0005 -0.000256119 0.000352125 -0.0005 -0.000176881 0.000397875 -0.0005 
-9.76417e-05 0.000443625 -0.0005 -0.000412474 0.0002555 -0.0005 -0.000417974 0.000234974 -0.0005 
-0.000433 -0.00013725 -0.0005 -0.000433 -4.575e-05 -0.0005 -0.000433 4.575e-05 -0.0005 
-0.000433 0.00013725 -0.0005 -0.000417974 -0.000234974 -0.0005 -0.000412474 -0.0002555 -0.0005 
[...]
POINT_DATA 2586
VECTORS displacement float
-2.96018e-09 2.30925e-07 1.44376e-07
1.7924e-08 2.29387e-07 1.44511e-07
-1.92675e-07 1.43617e-07 1.51733e-07
-1.90842e-07 1.36875e-07 1.51804e-07
-2.02306e-07 1.26024e-07 1.56196e-07
-2.02515e-07 -1.26147e-07 1.56212e-07
-1.91055e-07 -1.37003e-07 1.51829e-07
-1.92886e-07 -1.43746e-07 1.5176e-07
-2.97735e-09 -2.30469e-07 1.44807e-07
1.78691e-08 -2.29613e-07 1.44128e-07
1.90784e-07 -1.19228e-07 1.43991e-07
2.01173e-07 -1.01357e-07 1.4436e-07
2.01432e-07 1.01483e-07 1.44426e-07
1.90978e-07 1.19647e-07 1.44419e-07
0 0 0
1.96088e-08 2.35309e-07 1.44168e-07
8.95019e-09 2.48772e-07 1.44701e-07
2.98287e-08 4.59978e-07 1.44817e-07
3.87581e-08 4.74756e-07 1.4384e-07
3.74571e-08 4.82714e-07 1.44048e-07
2.12911e-07 5.73833e-07 1.4308e-07
2.40662e-07 5.73016e-07 1.42417e-07
4.13416e-07 4.60939e-07 1.42532e-07
4.26402e-07 4.3652e-07 1.42722e-07
4.13647e-07 2.38625e-07 1.44283e-07
3.97978e-07 2.20478e-07 1.44106e-07
2.12071e-07 1.19057e-07 1.44011e-07
2.2501e-07 3.37778e-07 5.74968e-08
2.1328e-07 1.13385e-07 1.43788e-07
4.21822e-07 2.24215e-07 1.44579e-07
5.94785e-07 1.27164e-07 1.42663e-07
6.0867e-07 1.03295e-07 1.42849e-07
6.08515e-07 -1.03503e-07 1.42746e-07
5.94626e-07 -1.27414e-07 1.4258e-07
4.21665e-07 -2.24697e-07 1.43693e-07
3.9796e-07 -2.20366e-07 1.44345e-07
2.11909e-07 -1.19358e-07 1.44398e-07
2.13066e-07 -1.13579e-07 1.44045e-07
4.11324e-07 8.92519e-11 5.73351e-08
4.13568e-07 -2.38634e-07 1.44289e-07
4.26333e-07 -4.3668e-07 1.42893e-07
4.13304e-07 -4.6106e-07 1.42688e-07
2.40511e-07 -5.72984e-07 1.42398e-07
2.12757e-07 -5.73809e-07 1.43067e-07
3.72775e-08 -4.82627e-07 1.44011e-07
3.85729e-08 -4.74668e-07 1.43801e-07
2.95961e-08 -4.59865e-07 1.44754e-07
9.00821e-09 -2.48611e-07 1.44772e-07
1.96048e-08 -2.35434e-07 1.43916e-07
2.24771e-07 -3.39461e-07 5.75018e-08
2.36899e-08 -4.83369e-07 1.44583e-07
-1.23777e-07 -6.15393e-07 1.43036e-07
-1.51468e-07 -6.18869e-07 1.43681e-07
-3.51224e-07 -5.56728e-07 1.43556e-07
-3.51432e-07 -5.48535e-07 1.43341e-07
-3.69037e-07 -5.33437e-07 1.44018e-07
-4.28123e-07 -3.37842e-07 1.53875e-07
-4.1924e-07 -3.19551e-07 1.56739e-07
-4.2424e-07 -3.13886e-07 1.58779e-07
-2.14648e-07 -1.4826e-07 1.5623e-07
-1.64687e-07 -3.75327e-07 5.80015e-08
-4.53978e-07 -3.22994e-07 1.63801e-07
-7.52277e-07 -1.85363e-07 1.73533e-07
-7.50645e-07 -1.77629e-07 1.73511e-07
-7.66579e-07 -1.62458e-07 1.73667e-07
-7.66544e-07 1.62388e-07 1.73669e-07
-7.50604e-07 1.77556e-07 1.73512e-07
-7.52233e-07 1.85292e-07 1.73535e-07
-4.53444e-07 3.22798e-07 1.63603e-07
-4.24615e-07 3.13738e-07 1.59046e-07
-2.14462e-07 1.48108e-07 1.56212e-07
-4.51162e-07 -5.082e-11 1.63899e-07
-4.19538e-07 3.19406e-07 1.56947e-07
-4.28299e-07 3.37732e-07 1.53993e-07
-3.68807e-07 5.33282e-07 1.44025e-07
-3.51207e-07 5.48374e-07 1.43352e-07
-3.50998e-07 5.56568e-07 1.43568e-07
-1.52364e-07 6.18731e-07 1.43071e-07
-1.24677e-07 6.15437e-07 1.43722e-07
2.38765e-08 4.83455e-07 1.44659e-07
-1.64559e-07 3.75752e-07 5.79707e-08
-2.96018e-09 2.30925e-07 -1.44376e-07
1.7924e-08 2.29387e-07 -1.44511e-07
-1.92675e-07 1.43617e-07 -1.51733e-07
-1.90842e-07 1.36875e-07 -1.51804e-07
-2.02306e-07 1.26024e-07 -1.56196e-07
-2.02515e-07 -1.26147e-07 -1.56212e-07
-1.91055e-07 -1.37003e-07 -1.51829e-07
-1.92886e-07 -1.43746e-07 -1.5176e-07
-2.97735e-09 -2.30469e-07 -1.44807e-07
1.78691e-08 -2.29613e-07 -1.44128e-07
1.90784e-07 -1.19228e-07 -1.43991e-07
2.01173e-07 -1.01357e-07 -1.4436e-07
2.01432e-07 1.01483e-07 -1.44426e-07
1.90978e-07 1.19647e-07 -1.44419e-07
0 0 0
1.96088e-08 2.35309e-07 -1.44168e-07
8.95019e-09 2.48772e-07 -1.44701e-07
2.98287e-08 4.59978e-07 -1.44817e-07
3.87581e-08 4.74756e-07 -1.4384e-07
3.74571e-08 4.82714e-07 -1.44048e-07
2.12911e-07 5.73833e-07 -1.4308e-07
2.40662e-07 5.73016e-07 -1.42417e-07
4.13416e-07 4.60939e-07 -1.42532e-07
4.26402e-07 4.3652e-07 -1.42722e-07
4.13647e-07 2.38625e-07 -1.44283e-07
3.97978e-07 2.20478e-07 -1.44106e-07
2.12071e-07 1.19057e-07 -1.44011e-07
2.2501e-07 3.37778e-07 -5.74968e-08
2.1328e-07 1.13385e-07 -1.43788e-07
4.21822e-07 2.24215e-07 -1.44579e-07
5.94785e-07 1.27164e-07 -1.42663e-07
6.0867e-07 1.03295e-07 -1.42849e-07
6.08515e-07 -1.03503e-07 -1.42746e-07
5.94626e-07 -1.27414e-07 -1.4258e-07
4.21665e-07 -2.24697e-07 -1.43693e-07
3.9796e-07 -2.20366e-07 -1.44345e-07
2.11909e-07 -1.19358e-07 -1.44398e-07
2.13066e-07 -1.13579e-07 -1.44045e-07
4.11324e-07 8.92519e-11 -5.73351e-08
4.13568e-07 -2.38634e-07 -1.44289e-07
4.26333e-07 -4.3668e-07 -1.42893e-07
4.13304e-07 -4.6106e-07 -1.42688e-07
2.40511e-07 -5.72984e-07 -1.42398e-07
2.12757e-07 -5.73809e-07 -1.43067e-07
3.72775e-08 -4.82627e-07 -1.44011e-07
3.85729e-08 -4.74668e-07 -1.43801e-07
2.95961e-08 -4.59865e-07 -1.44754e-07
9.00821e-09 -2.48611e-07 -1.44772e-07
1.96048e-08 -2.35434e-07 -1.43916e-07
2.24771e-07 -3.39461e-07 -5.75018e-08
2.36899e-08 -4.83369e-07 -1.44583e-07
-1.23777e-07 -6.15393e-07 -1.43036e-07
-1.51468e-07 -6.18869e-07 -1.43681e-07
-3.51224e-07 -5.56728e-07 -1.43556e-07
-3.51432e-07 -5.48535e-07 -1.43341e-07
-3.69037e-07 -5.33437e-07 -1.44018e-07
-4.28123e-07 -3.37842e-07 -1.53875e-07
-4.1924e-07 -3.19551e-07 -1.56739e-07
-4.2424e-07 -3.13886e-07 -1.58779e-07
-2.14648e-07 -1.4826e-07 -1.5623e-07
-1.64687e-07 -3.75327e-07 -5.80015e-08
-4.53978e-07 -3.22994e-07 -1.63801e-07
-7.52277e-07 -1.85363e-07 -1.73533e-07
-7.50645e-07 -1.77629e-07 -1.73511e-07
-7.66579e-07 -1.62458e-07 -1.73667e-07
-7.66544e-07 1.62388e-07 -1.73669e-07
-7.50604e-07 1.77556e-07 -1.73512e-07
-7.52233e-07 1.85292e-07 -1.73535e-07
-4.53444e-07 3.22798e-07 -1.63603e-07
-4.24615e-07 3.13738e-07 -1.59046e-07
-2.14462e-07 1.48108e-07 -1.56212e-07
-4.51162e-07 -5.082e-11 -1.63899e-07
-4.19538e-07 3.19406e-07 -1.56947e-07
-4.28299e-07 3.37732e-07 -1.53993e-07
-3.68807e-07 5.33282e-07 -1.44025e-07
-3.51207e-07 5.48374e-07 -1.43352e-07
-3.50998e-07 5.56568e-07 -1.43568e-07
-1.52364e-07 6.18731e-07 -1.43071e-07
-1.24677e-07 6.15437e-07 -1.43722e-07
2.38765e-08 4.83455e-07 -1.44659e-07
-1.64559e-07 3.75752e-07 -5.79707e-08
7.26937e-09 2.24789e-07 1.43814e-07
-1.48127e-07 1.64502e-07 1.39252e-07
-1.13145e-07 1.7941e-07 1.29308e-07
-8.07985e-08 1.93528e-07 1.28149e-07
-4.65975e-08 2.08976e-07 1.35568e-07
-1.9117e-07 1.4016e-07 1.51825e-07
-1.94154e-07 1.28853e-07 1.53416e-07
-2.02764e-07 -7.11634e-08 1.518e-07
-2.02006e-07 -2.31932e-08 1.47936e-07
-2.01907e-07 2.30974e-08 1.47795e-07
-2.02634e-07 7.10469e-08 1.51844e-07
-1.94365e-07 -1.28979e-07 1.53437e-07
-1.91382e-07 -1.40289e-07 1.51851e-07
-4.65324e-08 -2.08999e-07 1.35524e-07
-8.09328e-08 -1.93463e-07 1.28579e-07
-1.13345e-07 -1.79452e-07 1.29383e-07
-1.4834e-07 -1.64605e-07 1.39294e-07
7.05842e-09 -2.24656e-07 1.4384e-07
1.49483e-07 -1.44246e-07 1.34576e-07
1.18187e-07 -1.63317e-07 1.26302e-07
8.93867e-08 -1.81864e-07 1.26323e-07
5.8537e-08 -2.02068e-07 1.34688e-07
1.90824e-07 -1.07582e-07 1.43801e-07
1.99724e-07 5.3402e-08 1.34468e-07
1.99412e-07 1.68809e-08 1.26441e-07
1.99279e-07 -1.68591e-08 1.26748e-07
1.9969e-07 -5.33217e-08 1.34348e-07
1.91085e-07 1.07837e-07 1.43996e-07
5.85472e-08 2.02331e-07 1.34572e-07
8.94937e-08 1.82062e-07 1.26717e-07
1.18387e-07 1.63574e-07 1.26712e-07
1.49778e-07 1.44259e-07 1.34513e-07
0 0 0
0 0 0
0 0 0
1.94886e-08 2.325e-07 1.44532e-07
1.61385e-08 2.4356e-07 1.43914e-07
1.19463e-08 2.97738e-07 1.34905e-07
1.59947e-08 3.35286e-07 1.2745e-07
2.0368e-08 3.70358e-07 1.27188e-07
2.45913e-08 4.08802e-07 1.3511e-07
3.58193e-08 4.64734e-07 1.43884e-07
3.84239e-08 4.78806e-07 1.44102e-07
8.58984e-08 4.93873e-07 1.35505e-07
1.19738e-07 5.00158e-07 1.28721e-07
1.46457e-07 5.14492e-07 1.28777e-07
1.73484e-07 5.39075e-07 1.34796e-07
2.2601e-07 5.67296e-07 1.4217e-07
2.77401e-07 5.34979e-07 1.34991e-07
3.03055e-07 5.06863e-07 1.2804e-07
3.29173e-07 4.89405e-07 1.28174e-07
3.63759e-07 4.78222e-07 1.34472e-07
4.14578e-07 4.45521e-07 1.42279e-07
4.11888e-07 3.84975e-07 1.34614e-07
3.99205e-07 3.49819e-07 1.2901e-07
3.9675e-07 3.19262e-07 1.28767e-07
4.03633e-07 2.85642e-07 1.35786e-07
4.00642e-07 2.31969e-07 1.4385e-07
2.55003e-07 1.43252e-07 1.34773e-07
2.87954e-07 1.60715e-07 1.26538e-07
3.18926e-07 1.77318e-07 1.26645e-07
3.52929e-07 1.95528e-07 1.34856e-07
2.0163e-07 1.24418e-07 1.43608e-07
2.1497e-07 3.53316e-07 5.83392e-08
1.98358e-07 3.39927e-07 5.7681e-08
2.10798e-07 3.25439e-07 5.69222e-08
2.09009e-07 1.05913e-07 1.43651e-07
2.13449e-07 1.16009e-07 1.44085e-07
4.09158e-07 2.1678e-07 1.43704e-07
4.56324e-07 1.90249e-07 1.35756e-07
4.81318e-07 1.65841e-07 1.29184e-07
5.08108e-07 1.50965e-07 1.28557e-07
5.43871e-07 1.42234e-07 1.34656e-07
5.96523e-07 1.11773e-07 1.42417e-07
5.96657e-07 5.16718e-08 1.34728e-07
5.87209e-07 1.55337e-08 1.28154e-07
5.8678e-07 -1.61476e-08 1.28709e-07
5.96673e-07 -5.18141e-08 1.34532e-07
5.96386e-07 -1.11992e-07 1.42317e-07
5.43664e-07 -1.42495e-07 1.34642e-07
5.07867e-07 -1.51159e-07 1.28535e-07
4.81047e-07 -1.65713e-07 1.28685e-07
4.56103e-07 -1.9028e-07 1.36017e-07
4.08479e-07 -2.17221e-07 1.43447e-07
2.54753e-07 -1.4312e-07 1.34675e-07
2.87767e-07 -1.60733e-07 1.26957e-07
3.18794e-07 -1.77348e-07 1.27021e-07
3.52816e-07 -1.95559e-07 1.34673e-07
2.13252e-07 -1.16262e-07 1.44421e-07
2.08744e-07 -1.0592e-07 1.43695e-07
3.98534e-07 1.27335e-08 5.78186e-08
3.82625e-07 8.95549e-10 5.82382e-08
3.97151e-07 -1.34674e-08 5.79046e-08
2.01689e-07 -1.24333e-07 1.43589e-07
4.00579e-07 -2.31929e-07 1.43896e-07
4.03621e-07 -2.8573e-07 1.3559e-07
3.96255e-07 -3.1902e-07 1.2936e-07
3.9953e-07 -3.49451e-07 1.28478e-07
4.11715e-07 -3.85152e-07 1.34866e-07
4.14476e-07 -4.45659e-07 1.4245e-07
3.63569e-07 -4.7817e-07 1.34611e-07
3.28946e-07 -4.89413e-07 1.28236e-07
3.02842e-07 -5.0681e-07 1.27948e-07
2.77236e-07 -5.34937e-07 1.34944e-07
2.25856e-07 -5.67269e-07 1.42154e-07
1.73308e-07 -5.39059e-07 1.34806e-07
1.46269e-07 -5.14422e-07 1.28797e-07
1.19579e-07 -5.0005e-07 1.28729e-07
8.5749e-08 -4.93776e-07 1.35494e-07
3.82426e-08 -4.78718e-07 1.44065e-07
3.56139e-08 -4.64635e-07 1.43833e-07
1.18335e-08 -2.97642e-07 1.35026e-07
1.60063e-08 -3.35287e-07 1.27157e-07
2.01326e-08 -3.70324e-07 1.2749e-07
2.45206e-08 -4.0872e-07 1.34999e-07
1.61911e-08 -2.43516e-07 1.43876e-07
1.94675e-08 -2.32681e-07 1.442e-07
2.1176e-07 -3.24726e-07 5.81132e-08
1.98214e-07 -3.39146e-07 5.76779e-08
2.13722e-07 -3.52676e-07 5.71603e-08
-1.74155e-09 -2.42732e-07 1.44459e-07
2.16614e-08 -4.68459e-07 1.44347e-07
-1.90359e-08 -5.01825e-07 1.36232e-07
-4.77662e-08 -5.16154e-07 1.29548e-07
-6.91191e-08 -5.38204e-07 1.29087e-07
-9.07033e-08 -5.71756e-07 1.35781e-07
-1.3917e-07 -6.11002e-07 1.42787e-07
-1.94038e-07 -5.89926e-07 1.35459e-07
-2.24536e-07 -5.71464e-07 1.29453e-07
-2.55532e-07 -5.63321e-07 1.29242e-07
-2.95152e-07 -5.62789e-07 1.35593e-07
-3.50801e-07 -5.52638e-07 1.43606e-07
-3.58378e-07 -5.38016e-07 1.43268e-07
-3.65766e-07 -4.82097e-07 1.36633e-07
-3.65771e-07 -4.47332e-07 1.31848e-07
-3.76379e-07 -4.17165e-07 1.33612e-07
-3.98429e-07 -3.84574e-07 1.41994e-07
-4.19598e-07 -3.29466e-07 1.53983e-07
-4.21246e-07 -3.16512e-07 1.57981e-07
-2.60027e-07 -1.82164e-07 1.52367e-07
-2.99748e-07 -2.12782e-07 1.48736e-07
-3.3877e-07 -2.42841e-07 1.48929e-07
-3.79561e-07 -2.74513e-07 1.53537e-07
-2.03851e-07 -1.51937e-07 1.52865e-07
-1.8014e-07 -3.64808e-07 5.99571e-08
-1.92875e-07 -3.85045e-07 5.99713e-08
-1.75751e-07 -3.93897e-07 5.82527e-08
-2.13483e-07 -1.35069e-07 1.57412e-07
-4.41525e-07 -3.12256e-07 1.62185e-07
-5.17712e-07 -2.98995e-07 1.66514e-07
-5.77636e-07 -2.72257e-07 1.6802e-07
-6.36103e-07 -2.44164e-07 1.69723e-07
-6.93976e-07 -2.15205e-07 1.71818e-07
-7.50945e-07 -1.81623e-07 1.73547e-07
-7.5567e-07 -1.66816e-07 1.73538e-07
-7.67755e-07 -9.70148e-08 1.72729e-07
-7.68391e-07 -3.23402e-08 1.72029e-07
-7.6839e-07 3.2257e-08 1.72024e-07
-7.67738e-07 9.69352e-08 1.72729e-07
-7.55633e-07 1.66743e-07 1.7354e-07
-7.50902e-07 1.81551e-07 1.73548e-07
-6.93912e-07 2.15116e-07 1.7182e-07
-6.36022e-07 2.44033e-07 1.6971e-07
-5.776e-07 2.72152e-07 1.6795e-07
-5.17703e-07 2.9902e-07 1.66546e-07
-4.40961e-07 3.12052e-07 1.62047e-07
-2.59859e-07 1.81964e-07 1.52367e-07
-2.99604e-07 2.12547e-07 1.48767e-07
-3.38644e-07 2.42593e-07 1.49099e-07
-3.79436e-07 2.74349e-07 1.53535e-07
-2.13322e-07 1.34928e-07 1.574e-07
-4.77831e-07 2.73987e-08 1.65205e-07
-5.05346e-07 -2.83997e-11 1.66641e-07
-4.77796e-07 -2.75068e-08 1.65271e-07
-2.03651e-07 1.51796e-07 1.5284e-07
-4.21596e-07 3.16352e-07 1.58222e-07
-4.19795e-07 3.29337e-07 1.54117e-07
-3.98499e-07 3.84446e-07 1.42062e-07
-3.76358e-07 4.17153e-07 1.33632e-07
-3.6563e-07 4.47304e-07 1.3189e-07
-3.6557e-07 4.81965e-07 1.36637e-07
-3.58152e-07 5.37858e-07 1.43276e-07
-3.50576e-07 5.52477e-07 1.43617e-07
-2.94948e-07 5.62575e-07 1.35627e-07
-2.55332e-07 5.63101e-07 1.29235e-07
-2.24447e-07 5.70822e-07 1.28962e-07
-1.93947e-07 5.8966e-07 1.35782e-07
-1.38928e-07 6.10954e-07 1.42825e-07
-9.06385e-08 5.71874e-07 1.35535e-07
-6.90421e-08 5.38762e-07 1.29637e-07
-4.7594e-08 5.16352e-07 1.29631e-07
-1.88201e-08 5.01932e-07 1.36288e-07
2.18217e-08 4.68557e-07 1.4443e-07
-1.80522e-09 2.43017e-07 1.44257e-07
-1.74094e-07 3.94372e-07 5.91933e-08
-1.92735e-07 3.83118e-07 5.99941e-08
-1.81443e-07 3.65381e-07 5.9e-08
7.26937e-09 2.24789e-07 -1.43814e-07
-1.48127e-07 1.64502e-07 -1.39252e-07
-1.13145e-07 1.7941e-07 -1.29308e-07
-8.07985e-08 1.93528e-07 -1.28149e-07
-4.65975e-08 2.08976e-07 -1.35568e-07
-1.9117e-07 1.4016e-07 -1.51825e-07
-1.94154e-07 1.28853e-07 -1.53416e-07
-2.02764e-07 -7.11634e-08 -1.518e-07
-2.02006e-07 -2.31932e-08 -1.47936e-07
-2.01907e-07 2.30974e-08 -1.47795e-07
-2.02634e-07 7.10469e-08 -1.51844e-07
-1.94365e-07 -1.28979e-07 -1.53437e-07
-1.91382e-07 -1.40289e-07 -1.51851e-07
-4.65324e-08 -2.08999e-07 -1.35524e-07
-8.09328e-08 -1.93463e-07 -1.28579e-07
-1.13345e-07 -1.79452e-07 -1.29383e-07
-1.4834e-07 -1.64605e-07 -1.39294e-07
7.05842e-09 -2.24656e-07 -1.4384e-07
1.49483e-07 -1.44246e-07 -1.34576e-07
1.18187e-07 -1.63317e-07 -1.26302e-07
8.93867e-08 -1.81864e-07 -1.26323e-07
5.8537e-08 -2.02068e-07 -1.34688e-07
1.90824e-07 -1.07582e-07 -1.43801e-07
1.99724e-07 5.3402e-08 -1.34468e-07
1.99412e-07 1.68809e-08 -1.26441e-07
1.99279e-07 -1.68591e-08 -1.26748e-07
1.9969e-07 -5.33217e-08 -1.34348e-07
1.91085e-07 1.07837e-07 -1.43996e-07
5.85472e-08 2.02331e-07 -1.34572e-07
8.94937e-08 1.82062e-07 -1.26717e-07
1.18387e-07 1.63574e-07 -1.26712e-07
1.49778e-07 1.44259e-07 -1.34513e-07
0 0 0
0 0 0
0 0 0
1.94886e-08 2.325e-07 -1.44532e-07
1.61385e-08 2.4356e-07 -1.43914e-07
1.19463e-08 2.97738e-07 -1.34905e-07
1.59947e-08 3.35286e-07 -1.2745e-07
2.0368e-08 3.70358e-07 -1.27188e-07
2.45913e-08 4.08802e-07 -1.3511e-07
3.58193e-08 4.64734e-07 -1.43884e-07
3.84239e-08 4.78806e-07 -1.44102e-07
8.58984e-08 4.93873e-07 -1.35505e-07
1.19738e-07 5.00158e-07 -1.28721e-07
1.46457e-07 5.14492e-07 -1.28777e-07
1.73484e-07 5.39075e-07 -1.34796e-07
2.2601e-07 5.67296e-07 -1.4217e-07
2.77401e-07 5.34979e-07 -1.34991e-07
3.03055e-07 5.06863e-07 -1.2804e-07
3.29173e-07 4.89405e-07 -1.28174e-07
3.63759e-07 4.78222e-07 -1.34472e-07
4.14578e-07 4.45521e-07 -1.42279e-07
4.11888e-07 3.84975e-07 -1.34614e-07
3.99205e-07 3.49819e-07 -1.2901e-07
3.9675e-07 3.19262e-07 -1.28767e-07
4.03633e-07 2.85642e-07 -1.35786e-07
4.00642e-07 2.31969e-07 -1.4385e-07
2.55003e-07 1.43252e-07 -1.34773e-07
2.87954e-07 1.60715e-07 -1.26538e-07
3.18926e-07 1.77318e-07 -1.26645e-07
3.52929e-07 1.95528e-07 -1.34856e-07
2.0163e-07 1.24418e-07 -1.43608e-07
2.1497e-07 3.53316e-07 -5.83392e-08
1.98358e-07 3.39927e-07 -5.7681e-08
2.10798e-07 3.25439e-07 -5.69222e-08
2.09009e-07 1.05913e-07 -1.43651e-07
2.13449e-07 1.16009e-07 -1.44085e-07
4.09158e-07 2.1678e-07 -1.43704e-07
4.56324e-07 1.90249e-07 -1.35756e-07
4.81318e-07 1.65841e-07 -1.29184e-07
5.08108e-07 1.50965e-07 -1.28557e-07
5.43871e-07 1.42234e-07 -1.34656e-07
5.96523e-07 1.11773e-07 -1.42417e-07
5.96657e-07 5.16718e-08 -1.34728e-07
5.87209e-07 1.55337e-08 -1.28154e-07
5.8678e-07 -1.61476e-08 -1.28709e-07
5.96673e-07 -5.18141e-08 -1.34532e-07
5.96386e-07 -1.11992e-07 -1.42317e-07
5.43664e-07 -1.42495e-07 -1.34642e-07
5.07867e-07 -1.51159e-07 -1.28535e-07
4.81047e-07 -1.65713e-07 -1.28685e-07
4.56103e-07 -1.9028e-07 -1.36017e-07
4.08479e-07 -2.17221e-07 -1.43447e-07
2.54753e-07 -1.4312e-07 -1.34675e-07
2.87767e-07 -1.60733e-07 -1.26957e-07
3.18794e-07 -1.77348e-07 -1.27021e-07
3.52816e-07 -1.95559e-07 -1.34673e-07
2.13252e-07 -1.16262e-07 -1.44421e-07
2.08744e-07 -1.0592e-07 -1.43695e-07
3.98534e-07 1.27335e-08 -5.78186e-08
3.82625e-07 8.95549e-10 -5.82382e-08
3.97151e-07 -1.34674e-08 -5.79046e-08
2.01689e-07 -1.24333e-07 -1.43589e-07
4.00579e-07 -2.31929e-07 -1.43896e-07
4.03621e-07 -2.8573e-07 -1.3559e-07
3.96255e-07 -3.1902e-07 -1.2936e-07
3.9953e-07 -3.49451e-07 -1.28478e-07
4.11715e-07 -3.85152e-07 -1.34866e-07
4.14476e-07 -4.45659e-07 -1.4245e-07
3.63569e-07 -4.7817e-07 -1.34611e-07
3.28946e-07 -4.89413e-07 -1.28236e-07
3.02842e-07 -5.0681e-07 -1.27948e-07
2.77236e-07 -5.34937e-07 -1.34944e-07
2.25856e-07 -5.67269e-07 -1.42154e-07
1.73308e-07 -5.39059e-07 -1.34806e-07
1.46269e-07 -5.14422e-07 -1.28797e-07
1.19579e-07 -5.0005e-07 -1.28729e-07
8.5749e-08 -4.93776e-07 -1.35494e-07
3.82426e-08 -4.78718e-07 -1.44065e-07
3.56139e-08 -4.64635e-07 -1.43833e-07
1.18335e-08 -2.97642e-07 -1.35026e-07
1.60063e-08 -3.35287e-07 -1.27157e-07
2.01326e-08 -3.70324e-07 -1.2749e-07
2.45206e-08 -4.0872e-07 -1.34999e-07
1.61911e-08 -2.43516e-07 -1.43876e-07
1.94675e-08 -2.32681e-07 -1.442e-07
2.1176e-07 -3.24726e-07 -5.81132e-08
1.98214e-07 -3.39146e-07 -5.76779e-08
2.13722e-07 -3.52676e-07 -5.71603e-08
-1.74155e-09 -2.42732e-07 -1.44459e-07
2.16614e-08 -4.68459e-07 -1.44347e-07
-1.90359e-08 -5.01825e-07 -1.36232e-07
-4.77662e-08 -5.16154e-07 -1.29548e-07
-6.91191e-08 -5.38204e-07 -1.29087e-07
-9.07033e-08 -5.71756e-07 -1.35781e-07
-1.3917e-07 -6.11002e-07 -1.42787e-07
-1.94038e-07 -5.89926e-07 -1.35459e-07
-2.24536e-07 -5.71464e-07 -1.29453e-07
-2.55532e-07 -5.63321e-07 -1.29242e-07
-2.95152e-07 -5.62789e-07 -1.35593e-07
-3.50801e-07 -5.52638e-07 -1.43606e-07
-3.58378e-07 -5.38016e-07 -1.43268e-07
-3.65766e-07 -4.82097e-07 -1.36633e-07
-3.65771e-07 -4.47332e-07 -1.31848e-07
-3.76379e-07 -4.17165e-07 -1.33612e-07
-3.98429e-07 -3.84574e-07 -1.41994e-07
-4.19598e-07 -3.29466e-07 -1.53983e-07
-4.21246e-07 -3.16512e-07 -1.57981e-07
-2.60027e-07 -1.82164e-07 -1.52367e-07
-2.99748e-07 -2.12782e-07 -1.48736e-07
-3.3877e-07 -2.42841e-07 -1.48929e-07
-3.79561e-07 -2.74513e-07 -1.53537e-07
-2.03851e-07 -1.51937e-07 -1.52865e-07
-1.8014e-07 -3.64808e-07 -5.99571e-08
-1.92875e-07 -3.85045e-07 -5.99713e-08
-1.75751e-07 -3.93897e-07 -5.82527e-08
-2.13483e-07 -1.35069e-07 -1.57412e-07
-4.41525e-07 -3.12256e-07 -1.62185e-07
-5.17712e-07 -2.98995e-07 -1.66514e-07
-5.77636e-07 -2.72257e-07 -1.6802e-07
-6.36103e-07 -2.44164e-07 -1.69723e-07
-6.93976e-07 -2.15205e-07 -1.71818e-07
-7.50945e-07 -1.81623e-07 -1.73547e-07
-7.5567e-07 -1.66816e-07 -1.73538e-07
-7.67755e-07 -9.70148e-08 -1.72729e-07
-7.68391e-07 -3.23402e-08 -1.72029e-07
-7.6839e-07 3.2257e-08 -1.72024e-07
-7.67738e-07 9.69352e-08 -1.72729e-07
-7.55633e-07 1.66743e-07 -1.7354e-07
-7.50902e-07 1.81551e-07 -1.73548e-07
-6.93912e-07 2.15116e-07 -1.7182e-07
-6.36022e-07 2.44033e-07 -1.6971e-07
-5.776e-07 2.72152e-07 -1.6795e-07
-5.17703e-07 2.9902e-07 -1.66546e-07
-4.40961e-07 3.12052e-07 -1.62047e-07
-2.59859e-07 1.81964e-07 -1.52367e-07
-2.99604e-07 2.12547e-07 -1.48767e-07
-3.38644e-07 2.42593e-07 -1.49099e-07
-3.79436e-07 2.74349e-07 -1.53535e-07
-2.13322e-07 1.34928e-07 -1.574e-07