# vtk DataFile Version 3.0
vtk output at time 1
ASCII
DATASET UNSTRUCTURED_GRID
POINTS 2586 float
-1.84029e-05 0.000489375 0 1.84029e-05 0.000489375 0 -0.000414597 0.000260625 0 
-0.00041175 0.00025 0 -0.000433 0.00022875 0 -0.000433 -0.00022875 0 
-0.00041175 -0.00025 0 -0.000414597 -0.000260625 0 -1.84029e-05 -0.000489375 0 
1.84029e-05 -0.000489375 0 0.000414597 -0.000260625 0 0.000433 -0.00022875 0 
0.000433 0.00022875 0 0.000414597 0.000260625 0 4.25e-05 0 0 
2.125e-05 0.0005 0 5.90898e-17 0.00052125 0 5.90919e-17 0.00097875 0 
2.125e-05 0.001 0 1.84029e-05 0.00101063 0 0.000414597 0.00123937 0 
0.000451403 0.00123937 0 0.000847597 0.00101063 0 0.000866 0.00097875 0 
0.000866 0.00052125 0 0.000847597 0.000489375 0 0.000451403 0.000260625 0 
0.0004755 0.00075 0 0.00045425 0.00025 0 0.000884403 0.000489375 0 
0.0012806 0.000260625 0 0.001299 0.00022875 0 0.001299 -0.00022875 0 
0.0012806 -0.000260625 0 0.000884403 -0.000489375 0 0.000847597 -0.000489375 0 
0.000451403 -0.000260625 0 0.00045425 -0.00025 0 0.0009085 0 0 
0.000866 -0.00052125 0 0.000866 -0.00097875 0 0.000847597 -0.00101063 0 
0.000451403 -0.00123937 0 0.000414597 -0.00123937 0 1.84029e-05 -0.00101063 0 
2.125e-05 -0.001 0 5.90898e-17 -0.00097875 0 5.90919e-17 -0.00052125 0 
2.125e-05 -0.0005 0 0.0004755 -0.00075 0 -1.84029e-05 -0.00101063 0 
-0.000414597 -0.00123937 0 -0.000451403 -0.00123937 0 -0.000847597 -0.00101063 0 
-0.00084475 -0.001 0 -0.000866 -0.00097875 0 -0.000866 -0.00052125 0 
-0.00084475 -0.0005 0 -0.000847597 -0.000489375 0 -0.000451403 -0.000260625 0 
-0.0003905 -0.00075 0 -0.000884403 -0.000489375 0 -0.0012806 -0.000260625 0 
-0.00127775 -0.00025 0 -0.001299 -0.00022875 0 -0.001299 0.00022875 0 
-0.00127775 0.00025 0 -0.0012806 0.000260625 0 -0.000884403 0.000489375 0 
-0.000847597 0.000489375 0 -0.000451403 0.000260625 0 -0.0008235 0 0 
-0.00084475 0.0005 0 -0.000866 0.00052125 0 -0.000866 0.00097875 0 
-0.00084475 0.001 0 -0.000847597 0.00101063 0 -0.000451403 0.00123937 0 
-0.000414597 0.00123937 0 -1.84029e-05 0.00101063 0 -0.0003905 0.00075 0 
-1.84029e-05 0.000489375 -0.0005 1.84029e-05 0.000489375 -0.0005 -0.000414597 0.000260625 -0.0005 
-0.00041175 0.00025 -0.0005 -0.000433 0.00022875 -0.0005 -0.000433 -0.00022875 -0.0005 
-0.00041175 -0.00025 -0.0005 -0.000414597 -0.000260625 -0.0005 -1.84029e-05 -0.000489375 -0.0005 
1.84029e-05 -0.000489375 -0.0005 0.000414597 -0.000260625 -0.0005 0.000433 -0.00022875 -0.0005 
0.000433 0.00022875 -0.0005 0.000414597 0.000260625 -0.0005 4.25e-05 0 -0.0005 
2.125e-05 0.0005 -0.0005 5.90898e-17 0.00052125 -0.0005 5.90919e-17 0.00097875 -0.0005 
2.125e-05 0.001 -0.0005 1.84029e-05 0.00101063 -0.0005 0.000414597 0.00123937 -0.0005 
0.000451403 0.00123937 -0.0005 0.000847597 0.00101063 -0.0005 0.000866 0.00097875 -0.0005 
0.000866 0.00052125 -0.0005 0.000847597 0.000489375 -0.0005 0.000451403 0.000260625 -0.0005 
0.0004755 0.00075 -0.0005 0.00045425 0.00025 -0.0005 0.000884403 0.000489375 -0.0005 
0.0012806 0.000260625 -0.0005 0.001299 0.00022875 -0.0005 0.001299 -0.00022875 -0.0005 
0.0012806 -0.000260625 -0.0005 0.000884403 -0.000489375 -0.0005 0.000847597 -0.000489375 -0.0005 
0.000451403 -0.000260625 -0.0005 0.00045425 -0.00025 -0.0005 0.0009085 0 -0.0005 
0.000866 -0.00052125 -0.0005 0.000866 -0.00097875 -0.0005 0.000847597 -0.00101063 -0.0005 
0.000451403 -0.00123937 -0.0005 0.000414597 -0.00123937 -0.0005 1.84029e-05 -0.00101063 -0.0005 
2.125e-05 -0.001 -0.0005 5.90898e-17 -0.00097875 -0.0005 5.90919e-17 -0.00052125 -0.0005 
2.125e-05 -0.0005 -0.0005 0.0004755 -0.00075 -0.0005 -1.84029e-05 -0.00101063 -0.0005 
-0.000414597 -0.00123937 -0.0005 -0.000451403 -0.00123937 -0.0005 -0.000847597 -0.00101063 -0.0005 
-0.00084475 -0.001 -0.0005 -0.000866 -0.00097875 -0.0005 -0.000866 -0.00052125 -0.0005 
-0.00084475 -0.0005 -0.0005 -0.000847597 -0.000489375 -0.0005 -0.000451403 -0.000260625 -0.0005 
-0.0003905 -0.00075 -0.0005 -0.000884403 -0.000489375 -0.0005 -0.0012806 -0.000260625 -0.0005 
-0.00127775 -0.00025 -0.0005 -0.001299 -0.00022875 -0.0005 -0.001299 0.00022875 -0.0005 
-0.00127775 0.00025 -0.0005 -0.0012806 0.000260625 -0.0005 -0.000884403 0.000489375 -0.0005 
-0.000847597 0.000489375 -0.0005 -0.000451403 0.000260625 -0.0005 -0.0008235 0 -0.0005 
-0.00084475 0.0005 -0.0005 -0.000866 0.00052125 -0.0005 -0.000866 0.00097875 -0.0005 
-0.00084475 0.001 -0.0005 -0.000847597 0.00101063 -0.0005 -0.000451403 0.00123937 -0.0005 
-0.000414597 0.00123937 -0.0005 -1.84029e-05 0.00101063 -0.0005 -0.0003905 0.00075 -0.0005 
-9.82724e-20 0.00047875 0 -0.000335358 0.000306375 0 -0.000256119 0.000352125 0 
-0.000176881 0.000397875 0 -9.76417e-05 0.000443625 0 -0.000412474 0.0002555 0 
-0.000417974 0.000234974 0 -0.000433 -0.00013725 0 -0.000433 -4.575e-05 0 
-0.000433 4.575e-05 0 -0.000433 0.00013725 0 -0.000417974 -0.000234974 0 
-0.000412474 -0.0002555 0 -9.76417e-05 -0.000443625 0 -0.000176881 -0.000397875 0 
-0.000256119 -0.000352125 0 -0.000335358 -0.000306375 0 -1.07223e-19 -0.00047875 0 
0.000335358 -0.000306375 0 0.000256119 -0.000352125 0 0.000176881 -0.000397875 0 
9.76417e-05 -0.000443625 0 0.000414597 -0.000239375 0 0.000433 0.00013725 0 
0.000433 4.575e-05 0 0.000433 -4.575e-05 0 0.000433 -0.00013725 0 
0.000414597 0.000239375 0 9.76417e-05 0.000443625 0 0.000176881 0.000397875 0 
0.000256119 0.000352125 0 0.000335358 0.000306375 0 -1.29514e-19 4.25e-05 0 
-4.25e-05 -3.53397e-19 0 4.07417e-19 -4.25e-05 0 2.05259e-05 0.0004945 0 
1.5026e-05 0.000515026 0 0 0.00061275 0 0 0.00070425 0 
0 0.00079575 0 0 0.00088725 0 1.5026e-05 0.000984974 0 
2.05259e-05 0.0010055 0 9.76417e-05 0.00105638 0 0.000176881 0.00110213 0 
0.000256119 0.00114787 0 0.000335358 0.00119362 0 0.000433 0.00122875 0 
0.000530642 0.00119362 0 0.000609881 0.00114787 0 0.000689119 0.00110213 0 
0.000768358 0.00105638 0 0.000847597 0.000989375 0 0.000866 0.00088725 0 
0.000866 0.00079575 0 0.000866 0.00070425 0 0.000866 0.00061275 0 
0.000847597 0.000510625 0 0.000530642 0.000306375 0 0.000609881 0.000352125 0 
0.000689119 0.000397875 0 0.000768358 0.000443625 0 0.000433 0.00027125 0 
0.000433 0.0007925 0 0.0003905 0.00075 0 0.000433 0.0007075 0 
0.000448026 0.000234974 0 0.000453526 0.0002555 0 0.000866 0.00047875 0 
0.000963642 0.000443625 0 0.00104288 0.000397875 0 0.00112212 0.000352125 0 
0.00120136 0.000306375 0 0.0012806 0.000239375 0 0.001299 0.00013725 0 
0.001299 4.575e-05 0 0.001299 -4.575e-05 0 0.001299 -0.00013725 0 
0.0012806 -0.000239375 0 0.00120136 -0.000306375 0 0.00112212 -0.000352125 0 
0.00104288 -0.000397875 0 0.000963642 -0.000443625 0 0.000866 -0.00047875 0 
0.000530642 -0.000306375 0 0.000609881 -0.000352125 0 0.000689119 -0.000397875 0 
0.000768358 -0.000443625 0 0.000453526 -0.0002555 0 0.000448026 -0.000234974 0 
0.000866 4.25e-05 0 0.0008235 -3.53397e-19 0 0.000866 -4.25e-05 0 
0.000433 -0.00027125 0 0.000847597 -0.000510625 0 0.000866 -0.00061275 0 
0.000866 -0.00070425 0 0.000866 -0.00079575 0 0.000866 -0.00088725 0 
0.000847597 -0.000989375 0 0.000768358 -0.00105638 0 0.000689119 -0.00110213 0 
0.000609881 -0.00114787 0 0.000530642 -0.00119362 0 0.000433 -0.00122875 0 
0.000335358 -0.00119362 0 0.000256119 -0.00114787 0 0.000176881 -0.00110213 0 
9.76417e-05 -0.00105638 0 2.05259e-05 -0.0010055 0 1.5026e-05 -0.000984974 0 
0 -0.00061275 0 0 -0.00070425 0 0 -0.00079575 0 
0 -0.00088725 0 1.5026e-05 -0.000515026 0 2.05259e-05 -0.0004945 0 
0.000433 -0.0007075 0 0.0003905 -0.00075 0 0.000433 -0.0007925 0 
-1.84031e-05 -0.000510625 0 -1.84031e-05 -0.000989375 0 -9.76417e-05 -0.00105638 0 
-0.000176881 -0.00110213 0 -0.000256119 -0.00114787 0 -0.000335358 -0.00119362 0 
-0.000433 -0.00122875 0 -0.000530642 -0.00119362 0 -0.000609881 -0.00114787 0 
-0.000689119 -0.00110213 0 -0.000768358 -0.00105638 0 -0.000845474 -0.0010055 0 
-0.000850974 -0.000984974 0 -0.000866 -0.00088725 0 -0.000866 -0.00079575 0 
-0.000866 -0.00070425 0 -0.000866 -0.00061275 0 -0.000850974 -0.000515026 0 
-0.000845474 -0.0004945 0 -0.000530642 -0.000306375 0 -0.000609881 -0.000352125 0 
-0.000689119 -0.000397875 0 -0.000768358 -0.000443625 0 -0.000433 -0.00027125 0 
-0.000433 -0.0007075 0 -0.0004755 -0.00075 0 -0.000433 -0.0007925 0 
-0.000451403 -0.000239375 0 -0.000866 -0.00047875 0 -0.000963642 -0.000443625 0 
-0.00104288 -0.000397875 0 -0.00112212 -0.000352125 0 -0.00120136 -0.000306375 0 
-0.00127847 -0.0002555 0 -0.00128397 -0.000234974 0 -0.001299 -0.00013725 0 
-0.001299 -4.575e-05 0 -0.001299 4.575e-05 0 -0.001299 0.00013725 0 
-0.00128397 0.000234974 0 -0.00127847 0.0002555 0 -0.00120136 0.000306375 0 
-0.00112212 0.000352125 0 -0.00104288 0.000397875 0 -0.000963642 0.000443625 0 
-0.000866 0.00047875 0 -0.000530642 0.000306375 0 -0.000609881 0.000352125 0 
-0.000689119 0.000397875 0 -0.000768358 0.000443625 0 -0.000451403 0.000239375 0 
-0.000866 4.25e-05 0 -0.0009085 -3.53397e-19 0 -0.000866 -4.25e-05 0 
-0.000433 0.00027125 0 -0.000845474 0.0004945 0 -0.000850974 0.000515026 0 
-0.000866 0.00061275 0 -0.000866 0.00070425 0 -0.000866 0.00079575 0 
-0.000866 0.00088725 0 -0.000850974 0.000984974 0 -0.000845474 0.0010055 0 
-0.000768358 0.00105638 0 -0.000689119 0.00110213 0 -0.000609881 0.00114787 0 
-0.000530642 0.00119362 0 -0.000433 0.00122875 0 -0.000335358 0.00119362 0 
-0.000256119 0.00114787 0 -0.000176881 0.00110213 0 -9.76417e-05 0.00105638 0 
-1.84031e-05 0.000989375 0 -1.84031e-05 0.000510625 0 -0.000433 0.0007925 0 
-0.0004755 0.00075 0 -0.000433 0.0007075 0 -9.82724e-20 0.00047875 -0.0005 
-0.000335358 0.000306375 -0.0005 -0.000256119 0.000352125 -0.0005 -0.000176881 0.000397875 -0.0005 
-9.76417e-05 0.000443625 -0.0005 -0.000412474 0.0002555 -0.0005 -0.000417974 0.000234974 -0.0005 
-0.000433 -0.00013725 -0.0005 -0.000433 -4.575e-05 -0.0005 -0.000433 4.575e-05 -0.0005 
-0.000433 0.00013725 -0.0005 -0.000417974 -0.000234974 -0.0005 -0.000412474 -0.0002555 -0.0005 
[...]
POINT_DATA 2586
VECTORS displacement float
-3.28706e-09 2.56642e-07 1.60452e-07
1.99223e-08 2.54933e-07 1.60601e-07
-2.14133e-07 1.59615e-07 1.68631e-07
-2.12096e-07 1.52122e-07 1.6871e-07
-2.24836e-07 1.40064e-07 1.73592e-07
-2.25069e-07 -1.402e-07 1.7361e-07
-2.12332e-07 -1.52265e-07 1.68738e-07
-2.14367e-07 -1.59759e-07 1.68661e-07
-3.30618e-09 -2.56136e-07 1.6093e-07
1.98612e-08 -2.55184e-07 1.60176e-07
2.1203e-07 -1.32504e-07 1.60023e-07
2.23576e-07 -1.12643e-07 1.60434e-07
2.23864e-07 1.12783e-07 1.60506e-07
2.12245e-07 1.3297e-07 1.60499e-07
0 0 0
2.17949e-08 2.61513e-07 1.6022e-07
9.94964e-09 2.76476e-07 1.60812e-07
3.31592e-08 5.11199e-07 1.60941e-07
4.30825e-08 5.27623e-07 1.59856e-07
4.16368e-08 5.36467e-07 1.60087e-07
2.36627e-07 6.37729e-07 1.59012e-07
2.67469e-07 6.3682e-07 1.58274e-07
4.59456e-07 5.12261e-07 1.58403e-07
4.73888e-07 4.85122e-07 1.58614e-07
4.59709e-07 2.65193e-07 1.60347e-07
4.42295e-07 2.45026e-07 1.60152e-07
2.35687e-07 1.32315e-07 1.60046e-07
2.5007e-07 3.75389e-07 6.38979e-08
2.37031e-07 1.26011e-07 1.59798e-07
4.68794e-07 2.4918e-07 1.60677e-07
6.61016e-07 1.41324e-07 1.58548e-07
6.76446e-07 1.14796e-07 1.58755e-07
6.76275e-07 -1.15028e-07 1.5864e-07
6.60839e-07 -1.41601e-07 1.58456e-07
4.6862e-07 -2.49716e-07 1.59693e-07
4.42275e-07 -2.44902e-07 1.60417e-07
2.35507e-07 -1.32649e-07 1.60475e-07
2.36793e-07 -1.26227e-07 1.60083e-07
4.57127e-07 9.91816e-11 6.3718e-08
4.59621e-07 -2.65204e-07 1.60354e-07
4.73811e-07 -4.85301e-07 1.58804e-07
4.59331e-07 -5.12396e-07 1.58576e-07
2.67301e-07 -6.36785e-07 1.58254e-07
2.36457e-07 -6.37702e-07 1.58997e-07
4.14371e-08 -5.36369e-07 1.60046e-07
4.28767e-08 -5.27524e-07 1.59812e-07
3.29007e-08 -5.11074e-07 1.60871e-07
1.00141e-08 -2.76297e-07 1.60892e-07
2.17904e-08 -2.61652e-07 1.5994e-07
2.49805e-07 -3.77259e-07 6.39033e-08
2.63382e-08 -5.37195e-07 1.60682e-07
-1.3754e-07 -6.83929e-07 1.58963e-07
-1.68315e-07 -6.87793e-07 1.5968e-07
-3.90319e-07 -6.18745e-07 1.59542e-07
-3.90551e-07 -6.09639e-07 1.59302e-07
-4.10118e-07 -5.92861e-07 1.60054e-07
-4.758e-07 -3.75489e-07 1.71013e-07
-4.65931e-07 -3.5516e-07 1.74198e-07
-4.71488e-07 -3.48864e-07 1.76465e-07
-2.38552e-07 -1.64776e-07 1.7363e-07
-1.83019e-07 -4.17131e-07 6.44591e-08
-5.0454e-07 -3.58989e-07 1.82049e-07
-8.36094e-07 -2.06023e-07 1.9287e-07
-8.3428e-07 -1.97426e-07 1.92845e-07
-8.51988e-07 -1.80567e-07 1.93019e-07
-8.5195e-07 1.80489e-07 1.93021e-07
-8.34234e-07 1.97345e-07 1.92847e-07
-8.36045e-07 2.05943e-07 1.92872e-07
-5.03946e-07 3.58771e-07 1.81829e-07
-4.71905e-07 3.487e-07 1.76762e-07
-2.38346e-07 1.64608e-07 1.7361e-07
-5.01422e-07 -5.64685e-11 1.82168e-07
-4.66262e-07 3.54999e-07 1.74428e-07
-4.75996e-07 3.75367e-07 1.71144e-07
-4.09862e-07 5.9269e-07 1.60062e-07
-3.90301e-07 6.09461e-07 1.59314e-07
-3.90069e-07 6.18568e-07 1.59554e-07
-1.69311e-07 6.8764e-07 1.59002e-07
-1.3854e-07 6.83978e-07 1.59725e-07
2.65456e-08 5.3729e-07 1.60766e-07
-1.82877e-07 4.17603e-07 6.44248e-08
-3.28706e-09 2.56642e-07 -1.60452e-07
1.99223e-08 2.54933e-07 -1.60601e-07
-2.14133e-07 1.59615e-07 -1.68631e-07
-2.12096e-07 1.52122e-07 -1.6871e-07
-2.24836e-07 1.40064e-07 -1.73592e-07
-2.25069e-07 -1.402e-07 -1.7361e-07
-2.12332e-07 -1.52265e-07 -1.68738e-07
-2.14367e-07 -1.59759e-07 -1.68661e-07
-3.30618e-09 -2.56136e-07 -1.6093e-07
1.98612e-08 -2.55184e-07 -1.60176e-07
2.1203e-07 -1.32504e-07 -1.60023e-07
2.23576e-07 -1.12643e-07 -1.60434e-07
2.23864e-07 1.12783e-07 -1.60506e-07
2.12245e-07 1.3297e-07 -1.60499e-07
0 0 0
2.17949e-08 2.61513e-07 -1.6022e-07
9.94964e-09 2.76476e-07 -1.60812e-07
3.31592e-08 5.11199e-07 -1.60941e-07
4.30825e-08 5.27623e-07 -1.59856e-07
4.16368e-08 5.36467e-07 -1.60087e-07
2.36627e-07 6.37729e-07 -1.59012e-07
2.67469e-07 6.3682e-07 -1.58274e-07
4.59456e-07 5.12261e-07 -1.58403e-07
4.73888e-07 4.85122e-07 -1.58614e-07
4.59709e-07 2.65193e-07 -1.60347e-07
4.42295e-07 2.45026e-07 -1.60152e-07
2.35687e-07 1.32315e-07 -1.60046e-07
2.5007e-07 3.75389e-07 -6.38979e-08
2.37031e-07 1.26011e-07 -1.59798e-07
4.68794e-07 2.4918e-07 -1.60677e-07
6.61016e-07 1.41324e-07 -1.58548e-07
6.76446e-07 1.14796e-07 -1.58755e-07
6.76275e-07 -1.15028e-07 -1.5864e-07
6.60839e-07 -1.41601e-07 -1.58456e-07
4.6862e-07 -2.49716e-07 -1.59693e-07
4.42275e-07 -2.44902e-07 -1.60417e-07
2.35507e-07 -1.32649e-07 -1.60475e-07
2.36793e-07 -1.26227e-07 -1.60083e-07
4.57127e-07 9.91816e-11 -6.3718e-08
4.59621e-07 -2.65204e-07 -1.60354e-07
4.73811e-07 -4.85301e-07 -1.58804e-07
4.59331e-07 -5.12396e-07 -1.58576e-07
2.67301e-07 -6.36785e-07 -1.58254e-07
2.36457e-07 -6.37702e-07 -1.58997e-07
4.14371e-08 -5.36369e-07 -1.60046e-07
4.28767e-08 -5.27524e-07 -1.59812e-07
3.29007e-08 -5.11074e-07 -1.60871e-07
1.00141e-08 -2.76297e-07 -1.60892e-07
2.17904e-08 -2.61652e-07 -1.5994e-07
2.49805e-07 -3.77259e-07 -6.39033e-08
2.63382e-08 -5.37195e-07 -1.60682e-07
-1.3754e-07 -6.83929e-07 -1.58963e-07
-1.68315e-07 -6.87793e-07 -1.5968e-07
-3.90319e-07 -6.18745e-07 -1.59542e-07
-3.90551e-07 -6.09639e-07 -1.59302e-07
-4.10118e-07 -5.92861e-07 -1.60054e-07
-4.758e-07 -3.75489e-07 -1.71013e-07
-4.65931e-07 -3.5516e-07 -1.74198e-07
-4.71488e-07 -3.48864e-07 -1.76465e-07
-2.38552e-07 -1.64776e-07 -1.7363e-07
-1.83019e-07 -4.17131e-07 -6.44591e-08
-5.0454e-07 -3.58989e-07 -1.82049e-07
-8.36094e-07 -2.06023e-07 -1.9287e-07
-8.3428e-07 -1.97426e-07 -1.92845e-07
-8.51988e-07 -1.80567e-07 -1.93019e-07
-8.5195e-07 1.80489e-07 -1.93021e-07
-8.34234e-07 1.97345e-07 -1.92847e-07
-8.36045e-07 2.05943e-07 -1.92872e-07
-5.03946e-07 3.58771e-07 -1.81829e-07
-4.71905e-07 3.487e-07 -1.76762e-07
-2.38346e-07 1.64608e-07 -1.7361e-07
-5.01422e-07 -5.64685e-11 -1.82168e-07
-4.66262e-07 3.54999e-07 -1.74428e-07
-4.75996e-07 3.75367e-07 -1.71144e-07
-4.09862e-07 5.9269e-07 -1.60062e-07
-3.90301e-07 6.09461e-07 -1.59314e-07
-3.90069e-07 6.18568e-07 -1.59554e-07
-1.69311e-07 6.8764e-07 -1.59002e-07
-1.3854e-07 6.83978e-07 -1.59725e-07
2.65456e-08 5.3729e-07 -1.60766e-07
-1.82877e-07 4.17603e-07 -6.44248e-08
8.08128e-09 2.49823e-07 1.59828e-07
-1.64624e-07 1.82825e-07 1.54761e-07
-1.25744e-07 1.99393e-07 1.43709e-07
-8.97945e-08 2.15082e-07 1.42421e-07
-5.17839e-08 2.3225e-07 1.50665e-07
-2.1246e-07 1.55773e-07 1.68733e-07
-2.15776e-07 1.43207e-07 1.70503e-07
-2.25345e-07 -7.90926e-08 1.68709e-07
-2.24503e-07 -2.57776e-08 1.64416e-07
-2.24394e-07 2.56711e-08 1.6426e-07
-2.25201e-07 7.89632e-08 1.68758e-07
-2.16011e-07 -1.43347e-07 1.70525e-07
-2.12696e-07 -1.55917e-07 1.68763e-07
-5.17116e-08 -2.32275e-07 1.50615e-07
-8.99438e-08 -2.15011e-07 1.42898e-07
-1.25967e-07 -1.99439e-07 1.43793e-07
-1.6486e-07 -1.82939e-07 1.54807e-07
7.84685e-09 -2.49675e-07 1.59856e-07
1.6613e-07 -1.60308e-07 1.49562e-07
1.31349e-07 -1.81503e-07 1.40367e-07
9.93421e-08 -2.02117e-07 1.40391e-07
6.5057e-08 -2.24571e-07 1.49686e-07
2.12075e-07 -1.19562e-07 1.59812e-07
2.21965e-07 5.93491e-08 1.49441e-07
2.21618e-07 1.87608e-08 1.40521e-07
2.21471e-07 -1.87367e-08 1.40863e-07
2.21928e-07 -5.92598e-08 1.49308e-07
2.12364e-07 1.19845e-07 1.60029e-07
6.50684e-08 2.24863e-07 1.49558e-07
9.9461e-08 2.02337e-07 1.40828e-07
1.31572e-07 1.81788e-07 1.40823e-07
1.66458e-07 1.60323e-07 1.49491e-07
0 0 0
0 0 0
0 0 0
2.16611e-08 2.58392e-07 1.60625e-07
1.79383e-08 2.70684e-07 1.59939e-07
1.32805e-08 3.30895e-07 1.49927e-07
1.77808e-08 3.72623e-07 1.41643e-07
2.26423e-08 4.11601e-07 1.41351e-07
2.73373e-08 4.54326e-07 1.50154e-07
3.98166e-08 5.16485e-07 1.59904e-07
4.27112e-08 5.32124e-07 1.60147e-07
9.54718e-08 5.48868e-07 1.50593e-07
1.3308e-07 5.55851e-07 1.43054e-07
1.62774e-07 5.71781e-07 1.43116e-07
1.92811e-07 5.991e-07 1.49806e-07
2.51185e-07 6.30464e-07 1.58001e-07
3.08298e-07 5.94548e-07 1.50022e-07
3.36808e-07 5.633e-07 1.42297e-07
3.65833e-07 5.43898e-07 1.42446e-07
4.04271e-07 5.31469e-07 1.49445e-07
4.60748e-07 4.95126e-07 1.58121e-07
4.57757e-07 4.27839e-07 1.49603e-07
4.43661e-07 3.88769e-07 1.43375e-07
4.40932e-07 3.54809e-07 1.43104e-07
4.48581e-07 3.17446e-07 1.50905e-07
4.45256e-07 2.57797e-07 1.59867e-07
2.83399e-07 1.59203e-07 1.4978e-07
3.20019e-07 1.7861e-07 1.40628e-07
3.54441e-07 1.97062e-07 1.40747e-07
3.9223e-07 2.17299e-07 1.49872e-07
2.24083e-07 1.38272e-07 1.59597e-07
2.38912e-07 3.92658e-07 6.48339e-08
2.2045e-07 3.77778e-07 6.41026e-08
2.34275e-07 3.61677e-07 6.32593e-08
2.32284e-07 1.17707e-07 1.59645e-07
2.37219e-07 1.28926e-07 1.60128e-07
4.5472e-07 2.40917e-07 1.59705e-07
5.07137e-07 2.11432e-07 1.50872e-07
5.34914e-07 1.84306e-07 1.43569e-07
5.64687e-07 1.67774e-07 1.42872e-07
6.04432e-07 1.58071e-07 1.4965e-07
6.62946e-07 1.24218e-07 1.58275e-07
6.63096e-07 5.74251e-08 1.49729e-07
6.52596e-07 1.72632e-08 1.42424e-07
6.52119e-07 -1.79456e-08 1.43041e-07
6.63114e-07 -5.75833e-08 1.49512e-07
6.62795e-07 -1.24462e-07 1.58163e-07
6.04202e-07 -1.58361e-07 1.49634e-07
5.6442e-07 -1.6799e-07 1.42847e-07
5.34613e-07 -1.84164e-07 1.43014e-07
5.06892e-07 -2.11467e-07 1.51162e-07
4.53965e-07 -2.41407e-07 1.59419e-07
2.83121e-07 -1.59056e-07 1.49671e-07
3.19812e-07 -1.7863e-07 1.41094e-07
3.54294e-07 -1.97095e-07 1.41165e-07
3.92105e-07 -2.17334e-07 1.49669e-07
2.37e-07 -1.29208e-07 1.60502e-07
2.31989e-07 -1.17715e-07 1.59695e-07
4.42912e-07 1.41513e-08 6.42554e-08
4.25232e-07 9.95212e-10 6.47219e-08
4.41376e-07 -1.4967e-08 6.4351e-08
2.24149e-07 -1.38177e-07 1.59577e-07
4.45186e-07 -2.57753e-07 1.59918e-07
4.48567e-07 -3.17543e-07 1.50687e-07
4.40382e-07 -3.54541e-07 1.43764e-07
4.44022e-07 -3.88359e-07 1.42783e-07
4.57564e-07 -4.28035e-07 1.49883e-07
4.60635e-07 -4.9528e-07 1.58312e-07
4.04059e-07 -5.31412e-07 1.496e-07
3.65582e-07 -5.43907e-07 1.42515e-07
3.36571e-07 -5.63241e-07 1.42195e-07
3.08114e-07 -5.94501e-07 1.4997e-07
2.51014e-07 -6.30433e-07 1.57983e-07
1.92615e-07 -5.99083e-07 1.49816e-07
1.62565e-07 -5.71704e-07 1.43138e-07
1.32902e-07 -5.55732e-07 1.43063e-07
9.53058e-08 -5.48759e-07 1.50581e-07
4.25096e-08 -5.32026e-07 1.60106e-07
3.95883e-08 -5.16375e-07 1.59848e-07
1.31552e-08 -3.30787e-07 1.50061e-07
1.77937e-08 -3.72624e-07 1.41317e-07
2.23807e-08 -4.11563e-07 1.41686e-07
2.72586e-08 -4.54234e-07 1.50031e-07
1.79967e-08 -2.70635e-07 1.59896e-07
2.16376e-08 -2.58593e-07 1.60256e-07
2.35344e-07 -3.60884e-07 6.4583e-08
2.2029e-07 -3.7691e-07 6.40991e-08
2.37526e-07 -3.91947e-07 6.35238e-08
-1.93265e-09 -2.69764e-07 1.60543e-07
2.40831e-08 -5.20624e-07 1.60419e-07
-2.11436e-08 -5.57708e-07 1.51402e-07
-5.30715e-08 -5.73634e-07 1.43974e-07
-7.68003e-08 -5.9814e-07 1.4346e-07
-1.00786e-07 -6.35431e-07 1.50901e-07
-1.54648e-07 -6.79049e-07 1.58686e-07
-2.15626e-07 -6.5563e-07 1.50543e-07
-2.49521e-07 -6.35114e-07 1.43868e-07
-2.8397e-07 -6.26067e-07 1.43633e-07
-3.28002e-07 -6.25479e-07 1.50692e-07
-3.89849e-07 -6.14199e-07 1.59597e-07
-3.98272e-07 -5.9795e-07 1.59221e-07
-4.06485e-07 -5.35804e-07 1.51848e-07
-4.06493e-07 -4.97168e-07 1.4653e-07
-4.18286e-07 -4.63643e-07 1.48491e-07
-4.42795e-07 -4.27424e-07 1.57807e-07
-4.66327e-07 -3.66179e-07 1.71134e-07
-4.68161e-07 -3.51783e-07 1.75578e-07
-2.88985e-07 -2.02458e-07 1.69339e-07
-3.3313e-07 -2.36489e-07 1.65305e-07
-3.765e-07 -2.699e-07 1.65521e-07
-4.21835e-07 -3.05102e-07 1.7064e-07
-2.26553e-07 -1.68863e-07 1.6989e-07
-2.00195e-07 -4.05441e-07 6.66328e-08
-2.14346e-07 -4.27933e-07 6.66484e-08
-1.95314e-07 -4.3777e-07 6.47381e-08
-2.37258e-07 -1.50117e-07 1.74945e-07
-4.907e-07 -3.47054e-07 1.80253e-07
-5.7538e-07 -3.32321e-07 1.85068e-07
-6.41986e-07 -3.02604e-07 1.86745e-07
-7.06973e-07 -2.71381e-07 1.88639e-07
-7.71298e-07 -2.39191e-07 1.90966e-07
-8.34613e-07 -2.01866e-07 1.92885e-07
-8.39864e-07 -1.8541e-07 1.92876e-07
-8.533e-07 -1.07831e-07 1.91978e-07
-8.54008e-07 -3.59461e-08 1.91202e-07
-8.54007e-07 3.58537e-08 1.91197e-07
-8.5328e-07 1.07743e-07 1.91979e-07
-8.39823e-07 1.85329e-07 1.92878e-07
-8.34566e-07 2.01785e-07 1.92887e-07
-7.71226e-07 2.39093e-07 1.90968e-07
-7.06883e-07 2.71235e-07 1.88624e-07
-6.41947e-07 3.02489e-07 1.86667e-07
-5.75369e-07 3.32349e-07 1.85104e-07
-4.90073e-07 3.46827e-07 1.80099e-07
-2.88798e-07 2.02236e-07 1.69339e-07
-3.32971e-07 2.36228e-07 1.6534e-07
-3.7636e-07 2.69624e-07 1.65709e-07
-4.21696e-07 3.0492e-07 1.70638e-07
-2.37078e-07 1.4996e-07 1.74931e-07
-5.31063e-07 3.04524e-08 1.8362e-07
-5.61644e-07 -3.15117e-11 1.85217e-07
-5.31024e-07 -3.05725e-08 1.83693e-07
-2.26331e-07 1.68706e-07 1.69862e-07
-4.6855e-07 3.51605e-07 1.75846e-07
-4.66545e-07 3.66036e-07 1.71282e-07
-4.42872e-07 4.27282e-07 1.57884e-07
-4.18262e-07 4.6363e-07 1.48514e-07
-4.06337e-07 4.97137e-07 1.46578e-07
-4.06268e-07 5.35658e-07 1.51852e-07
-3.98019e-07 5.97774e-07 1.5923e-07
-3.896e-07 6.14021e-07 1.59609e-07
-3.27776e-07 6.2524e-07 1.50729e-07
-2.83748e-07 6.25822e-07 1.43625e-07
-2.49423e-07 6.344e-07 1.43323e-07
-2.15526e-07 6.55334e-07 1.50902e-07
-1.54379e-07 6.78996e-07 1.58728e-07
-1.00714e-07 6.35561e-07 1.50627e-07
-7.67147e-08 5.98761e-07 1.44072e-07
-5.288e-08 5.73854e-07 1.44066e-07
-2.09037e-08 5.57827e-07 1.51463e-07
2.42613e-08 5.20733e-07 1.60512e-07
-2.00335e-09 2.7008e-07 1.60319e-07
-1.93473e-07 4.38297e-07 6.57835e-08
-2.1419e-07 4.25792e-07 6.66737e-08
-2.01643e-07 4.06078e-07 6.5569e-08
8.08128e-09 2.49823e-07 -1.59828e-07
-1.64624e-07 1.82825e-07 -1.54761e-07
-1.25744e-07 1.99393e-07 -1.43709e-07
-8.97945e-08 2.15082e-07 -1.42421e-07
-5.17839e-08 2.3225e-07 -1.50665e-07
-2.1246e-07 1.55773e-07 -1.68733e-07
-2.15776e-07 1.43207e-07 -1.70503e-07
-2.25345e-07 -7.90926e-08 -1.68709e-07
-2.24503e-07 -2.57776e-08 -1.64416e-07
-2.24394e-07 2.56711e-08 -1.6426e-07
-2.25201e-07 7.89632e-08 -1.68758e-07
-2.16011e-07 -1.43347e-07 -1.70525e-07
-2.12696e-07 -1.55917e-07 -1.68763e-07
-5.17116e-08 -2.32275e-07 -1.50615e-07
-8.99438e-08 -2.15011e-07 -1.42898e-07
-1.25967e-07 -1.99439e-07 -1.43793e-07
-1.6486e-07 -1.82939e-07 -1.54807e-07
7.84685e-09 -2.49675e-07 -1.59856e-07
1.6613e-07 -1.60308e-07 -1.49562e-07
1.31349e-07 -1.81503e-07 -1.40367e-07
9.93421e-08 -2.02117e-07 -1.40391e-07
6.5057e-08 -2.24571e-07 -1.49686e-07
2.12075e-07 -1.19562e-07 -1.59812e-07
2.21965e-07 5.93491e-08 -1.49441e-07
2.21618e-07 1.87608e-08 -1.40521e-07
2.21471e-07 -1.87367e-08 -1.40863e-07
2.21928e-07 -5.92598e-08 -1.49308e-07
2.12364e-07 1.19845e-07 -1.60029e-07
6.50684e-08 2.24863e-07 -1.49558e-07
9.9461e-08 2.02337e-07 -1.40828e-07
1.31572e-07 1.81788e-07 -1.40823e-07
1.66458e-07 1.60323e-07 -1.49491e-07
0 0 0
0 0 0
0 0 0
2.16611e-08 2.58392e-07 -1.60625e-07
1.79383e-08 2.70684e-07 -1.59939e-07
1.32805e-08 3.30895e-07 -1.49927e-07
1.77808e-08 3.72623e-07 -1.41643e-07
2.26423e-08 4.11601e-07 -1.41351e-07
2.73373e-08 4.54326e-07 -1.50154e-07
3.98166e-08 5.16485e-07 -1.59904e-07
4.27112e-08 5.32124e-07 -1.60147e-07
9.54718e-08 5.48868e-07 -1.50593e-07
1.3308e-07 5.55851e-07 -1.43054e-07
1.62774e-07 5.71781e-07 -1.43116e-07
1.92811e-07 5.991e-07 -1.49806e-07
2.51185e-07 6.30464e-07 -1.58001e-07
3.08298e-07 5.94548e-07 -1.50022e-07
3.36808e-07 5.633e-07 -1.42297e-07
3.65833e-07 5.43898e-07 -1.42446e-07
4.04271e-07 5.31469e-07 -1.49445e-07
4.60748e-07 4.95126e-07 -1.58121e-07
4.57757e-07 4.27839e-07 -1.49603e-07
4.43661e-07 3.88769e-07 -1.43375e-07
4.40932e-07 3.54809e-07 -1.43104e-07
4.48581e-07 3.17446e-07 -1.50905e-07
4.45256e-07 2.57797e-07 -1.59867e-07
2.83399e-07 1.59203e-07 -1.4978e-07
3.20019e-07 1.7861e-07 -1.40628e-07
3.54441e-07 1.97062e-07 -1.40747e-07
3.9223e-07 2.17299e-07 -1.49872e-07
2.24083e-07 1.38272e-07 -1.59597e-07
2.38912e-07 3.92658e-07 -6.48339e-08
2.2045e-07 3.77778e-07 -6.41026e-08
2.34275e-07 3.61677e-07 -6.32593e-08
2.32284e-07 1.17707e-07 -1.59645e-07
2.37219e-07 1.28926e-07 -1.60128e-07
4.5472e-07 2.40917e-07 -1.59705e-07
5.07137e-07 2.11432e-07 -1.50872e-07
5.34914e-07 1.84306e-07 -1.43569e-07
5.64687e-07 1.67774e-07 -1.42872e-07
6.04432e-07 1.58071e-07 -1.4965e-07
6.62946e-07 1.24218e-07 -1.58275e-07
6.63096e-07 5.74251e-08 -1.49729e-07
6.52596e-07 1.72632e-08 -1.42424e-07
6.52119e-07 -1.79456e-08 -1.43041e-07
6.63114e-07 -5.75833e-08 -1.49512e-07
6.62795e-07 -1.24462e-07 -1.58163e-07
6.04202e-07 -1.58361e-07 -1.49634e-07
5.6442e-07 -1.6799e-07 -1.42847e-07
5.34613e-07 -1.84164e-07 -1.43014e-07
5.06892e-07 -2.11467e-07 -1.51162e-07
4.53965e-07 -2.41407e-07 -1.59419e-07
2.83121e-07 -1.59056e-07 -1.49671e-07
3.19812e-07 -1.7863e-07 -1.41094e-07
3.54294e-07 -1.97095e-07 -1.41165e-07
3.92105e-07 -2.17334e-07 -1.49669e-07
2.37e-07 -1.29208e-07 -1.60502e-07
2.31989e-07 -1.17715e-07 -1.59695e-07
4.42912e-07 1.41513e-08 -6.42554e-08
4.25232e-07 9.95212e-10 -6.47219e-08
4.41376e-07 -1.4967e-08 -6.4351e-08
2.24149e-07 -1.38177e-07 -1.59577e-07
4.45186e-07 -2.57753e-07 -1.59918e-07
4.48567e-07 -3.17543e-07 -1.50687e-07
4.40382e-07 -3.54541e-07 -1.43764e-07
4.44022e-07 -3.88359e-07 -1.42783e-07
4.57564e-07 -4.28035e-07 -1.49883e-07
4.60635e-07 -4.9528e-07 -1.58312e-07
4.04059e-07 -5.31412e-07 -1.496e-07
3.65582e-07 -5.43907e-07 -1.42515e-07
3.36571e-07 -5.63241e-07 -1.42195e-07
3.08114e-07 -5.94501e-07 -1.4997e-07
2.51014e-07 -6.30433e-07 -1.57983e-07
1.92615e-07 -5.99083e-07 -1.49816e-07
1.62565e-07 -5.71704e-07 -1.43138e-07
1.32902e-07 -5.55732e-07 -1.43063e-07
9.53058e-08 -5.48759e-07 -1.50581e-07
4.25096e-08 -5.32026e-07 -1.60106e-07
3.95883e-08 -5.16375e-07 -1.59848e-07
1.31552e-08 -3.30787e-07 -1.50061e-07
1.77937e-08 -3.72624e-07 -1.41317e-07
2.23807e-08 -4.11563e-07 -1.41686e-07
2.72586e-08 -4.54234e-07 -1.50031e-07
1.79967e-08 -2.70635e-07 -1.59896e-07
2.16376e-08 -2.58593e-07 -1.60256e-07
2.35344e-07 -3.60884e-07 -6.4583e-08
2.2029e-07 -3.7691e-07 -6.40991e-08
2.37526e-07 -3.91947e-07 -6.35238e-08
-1.93265e-09 -2.69764e-07 -1.60543e-07
2.40831e-08 -5.20624e-07 -1.60419e-07
-2.11436e-08 -5.57708e-07 -1.51402e-07
-5.30715e-08 -5.73634e-07 -1.43974e-07
-7.68003e-08 -5.9814e-07 -1.4346e-07
-1.00786e-07 -6.35431e-07 -1.50901e-07
-1.54648e-07 -6.79049e-07 -1.58686e-07
-2.15626e-07 -6.5563e-07 -1.50543e-07
-2.49521e-07 -6.35114e-07 -1.43868e-07
-2.8397e-07 -6.26067e-07 -1.43633e-07
-3.28002e-07 -6.25479e-07 -1.50692e-07
-3.89849e-07 -6.14199e-07 -1.59597e-07
-3.98272e-07 -5.9795e-07 -1.59221e-07
-4.06485e-07 -5.35804e-07 -1.51848e-07
-4.06493e-07 -4.97168e-07 -1.4653e-07
-4.18286e-07 -4.63643e-07 -1.48491e-07
-4.42795e-07 -4.27424e-07 -1.57807e-07
-4.66327e-07 -3.66179e-07 -1.71134e-07
-4.68161e-07 -3.51783e-07 -1.75578e-07
-2.88985e-07 -2.02458e-07 -1.69339e-07
-3.3313e-07 -2.36489e-07 -1.65305e-07
-3.765e-07 -2.699e-07 -1.65521e-07
-4.21835e-07 -3.05102e-07 -1.7064e-07
-2.26553e-07 -1.68863e-07 -1.6989e-07
-2.00195e-07 -4.05441e-07 -6.66328e-08
-2.14346e-07 -4.27933e-07 -6.66484e-08
-1.95314e-07 -4.3777e-07 -6.47381e-08
-2.37258e-07 -1.50117e-07 -1.74945e-07
-4.907e-07 -3.47054e-07 -1.80253e-07
-5.7538e-07 -3.32321e-07 -1.85068e-07
-6.41986e-07 -3.02604e-07 -1.86745e-07
-7.06973e-07 -2.71381e-07 -1.88639e-07
-7.71298e-07 -2.39191e-07 -1.90966e-07
-8.34613e-07 -2.01866e-07 -1.92885e-07
-8.39864e-07 -1.8541e-07 -1.92876e-07
-8.533e-07 -1.07831e-07 -1.91978e-07
-8.54008e-07 -3.59461e-08 -1.91202e-07
-8.54007e-07 3.58537e-08 -1.91197e-07
-8.5328e-07 1.07743e-07 -1.91979e-07
-8.39823e-07 1.85329e-07 -1.92878e-07
-8.34566e-07 2.01785e-07 -1.92887e-07
-7.71226e-07 2.39093e-07 -1.90968e-07
-7.06883e-07 2.71235e-07 -1.88624e-07
-6.41947e-07 3.02489e-07 -1.86667e-07
-5.75369e-07 3.32349e-07 -1.85104e-07
-4.90073e-07 3.46827e-07 -1.80099e-07
-2.88798e-07 2.02236e-07 -1.69339e-07
-3.32971e-07 2.36228e-07 -1.6534e-07
-3.7636e-07 2.69624e-07 -1.65709e-07
-4.21696e-07 3.0492e-07 -1.70638e-07
-2.37078e-07 1.4996e-07 -1.74931e-07