# vtk DataFile Version 3.0
vtk output at time 0.2
ASCII
DATASET UNSTRUCTURED_GRID
POINTS 2586 float
-1.84029e-05 0.000489375 0 1.84029e-05 0.000489375 0 -0.000414597 0.000260625 0 
-0.00041175 0.00025 0 -0.000433 0.00022875 0 -0.000433 -0.00022875 0 
-0.00041175 -0.00025 0 -0.000414597 -0.000260625 0 -1.84029e-05 -0.000489375 0 
1.84029e-05 -0.000489375 0 0.000414597 -0.000260625 0 0.000433 -0.00022875 0 
0.000433 0.00022875 0 0.000414597 0.000260625 0 4.25e-05 0 0 
2.125e-05 0.0005 0 5.90898e-17 0.00052125 0 5.90919e-17 0.00097875 0 
2.125e-05 0.001 0 1.84029e-05 0.00101063 0 0.000414597 0.00123937 0 
0.000451403 0.00123937 0 0.000847597 0.00101063 0 0.000866 0.00097875 0 
0.000866 0.00052125 0 0.000847597 0.000489375 0 0.000451403 0.000260625 0 
0.0004755 0.00075 0 0.00045425 0.00025 0 0.000884403 0.000489375 0 
0.0012806 0.000260625 0 0.001299 0.00022875 0 0.001299 -0.00022875 0 
0.0012806 -0.000260625 0 0.000884403 -0.000489375 0 0.000847597 -0.000489375 0 
0.000451403 -0.000260625 0 0.00045425 -0.00025 0 0.0009085 0 0 
0.000866 -0.00052125 0 0.000866 -0.00097875 0 0.000847597 -0.00101063 0 
0.000451403 -0.00123937 0 0.000414597 -0.00123937 0 1.84029e-05 -0.00101063 0 
2.125e-05 -0.001 0 5.90898e-17 -0.00097875 0 5.90919e-17 -0.00052125 0 
2.125e-05 -0.0005 0 0.0004755 -0.00075 0 -1.84029e-05 -0.00101063 0 
-0.000414597 -0.00123937 0 -0.000451403 -0.00123937 0 -0.000847597 -0.00101063 0 
-0.00084475 -0.001 0 -0.000866 -0.00097875 0 -0.000866 -0.00052125 0 
-0.00084475 -0.0005 0 -0.000847597 -0.000489375 0 -0.000451403 -0.000260625 0 
-0.0003905 -0.00075 0 -0.000884403 -0.000489375 0 -0.0012806 -0.000260625 0 
-0.00127775 -0.00025 0 -0.001299 -0.00022875 0 -0.001299 0.00022875 0 
-0.00127775 0.00025 0 -0.0012806 0.000260625 0 -0.000884403 0.000489375 0 
-0.000847597 0.000489375 0 -0.000451403 0.000260625 0 -0.0008235 0 0 
-0.00084475 0.0005 0 -0.000866 0.00052125 0 -0.000866 0.00097875 0 
-0.00084475 0.001 0 -0.000847597 0.00101063 0 -0.000451403 0.00123937 0 
-0.000414597 0.00123937 0 -1.84029e-05 0.00101063 0 -0.0003905 0.00075 0 
-1.84029e-05 0.000489375 -0.0005 1.84029e-05 0.000489375 -0.0005 -0.000414597 0.000260625 -0.0005 
-0.00041175 0.00025 -0.0005 -0.000433 0.00022875 -0.0005 -0.000433 -0.00022875 -0.0005 
-0.00041175 -0.00025 -0.0005 -0.000414597 -0.000260625 -0.0005 -1.84029e-05 -0.000489375 -0.0005 
1.84029e-05 -0.000489375 -0.0005 0.000414597 -0.000260625 -0.0005 0.000433 -0.00022875 -0.0005 
0.000433 0.00022875 -0.0005 0.000414597 0.000260625 -0.0005 4.25e-05 0 -0.0005 
2.125e-05 0.0005 -0.0005 5.90898e-17 0.00052125 -0.0005 5.90919e-17 0.00097875 -0.0005 
2.125e-05 0.001 -0.0005 1.84029e-05 0.00101063 -0.0005 0.000414597 0.00123937 -0.0005 
0.000451403 0.00123937 -0.0005 0.000847597 0.00101063 -0.0005 0.000866 0.00097875 -0.0005 
0.000866 0.00052125 -0.0005 0.000847597 0.000489375 -0.0005 0.000451403 0.000260625 -0.0005 
0.0004755 0.00075 -0.0005 0.00045425 0.00025 -0.0005 0.000884403 0.000489375 -0.0005 
0.0012806 0.000260625 -0.0005 0.001299 0.00022875 -0.0005 0.001299 -0.00022875 -0.0005 
0.0012806 -0.000260625 -0.0005 0.000884403 -0.000489375 -0.0005 0.000847597 -0.000489375 -0.0005 
0.000451403 -0.000260625 -0.0005 0.00045425 -0.00025 -0.0005 0.0009085 0 -0.0005 
0.000866 -0.00052125 -0.0005 0.000866 -0.00097875 -0.0005 0.000847597 -0.00101063 -0.0005 
0.000451403 -0.00123937 -0.0005 0.000414597 -0.00123937 -0.0005 1.84029e-05 -0.00101063 -0.0005 
2.125e-05 -0.001 -0.0005 5.90898e-17 -0.00097875 -0.0005 5.90919e-17 -0.00052125 -0.0005 
2.125e-05 -0.0005 -0.0005 0.0004755 -0.00075 -0.0005 -1.84029e-05 -0.00101063 -0.0005 
-0.000414597 -0.00123937 -0.0005 -0.000451403 -0.00123937 -0.0005 -0.000847597 -0.00101063 -0.0005 
-0.00084475 -0.001 -0.0005 -0.000866 -0.00097875 -0.0005 -0.000866 -0.00052125 -0.0005 
-0.00084475 -0.0005 -0.0005 -0.000847597 -0.000489375 -0.0005 -0.000451403 -0.000260625 -0.0005 
-0.0003905 -0.00075 -0.0005 -0.000884403 -0.000489375 -0.0005 -0.0012806 -0.000260625 -0.0005 
-0.00127775 -0.00025 -0.0005 -0.001299 -0.00022875 -0.0005 -0.001299 0.00022875 -0.0005 
-0.00127775 0.00025 -0.0005 -0.0012806 0.000260625 -0.0005 -0.000884403 0.000489375 -0.0005 
-0.000847597 0.000489375 -0.0005 -0.000451403 0.000260625 -0.0005 -0.0008235 0 -0.0005 
-0.00084475 0.0005 -0.0005 -0.000866 0.00052125 -0.0005 -0.000866 0.00097875 -0.0005 
-0.00084475 0.001 -0.0005 -0.000847597 0.00101063 -0.0005 -0.000451403 0.00123937 -0.0005 
-0.000414597 0.00123937 -0.0005 -1.84029e-05 0.00101063 -0.0005 -0.0003905 0.00075 -0.0005 
-9.82724e-20 0.00047875 0 -0.000335358 0.000306375 0 -0.000256119 0.000352125 0 
-0.000176881 0.000397875 0 -9.76417e-05 0.000443625 0 -0.000412474 0.0002555 0 
-0.000417974 0.000234974 0 -0.000433 -0.00013725 0 -0.000433 -4.575e-05 0 
-0.000433 4.575e-05 0 -0.000433 0.00013725 0 -0.000417974 -0.000234974 0 
-0.000412474 -0.0002555 0 -9.76417e-05 -0.000443625 0 -0.000176881 -0.000397875 0 
-0.000256119 -0.000352125 0 -0.000335358 -0.000306375 0 -1.07223e-19 -0.00047875 0 
0.000335358 -0.000306375 0 0.000256119 -0.000352125 0 0.000176881 -0.000397875 0 
9.76417e-05 -0.000443625 0 0.000414597 -0.000239375 0 0.000433 0.00013725 0 
0.000433 4.575e-05 0 0.000433 -4.575e-05 0 0.000433 -0.00013725 0 
0.000414597 0.000239375 0 9.76417e-05 0.000443625 0 0.000176881 0.000397875 0 
0.000256119 0.000352125 0 0.000335358 0.000306375 0 -1.29514e-19 4.25e-05 0 
-4.25e-05 -3.53397e-19 0 4.07417e-19 -4.25e-05 0 2.05259e-05 0.0004945 0 
1.5026e-05 0.000515026 0 0 0.00061275 0 0 0.00070425 0 
0 0.00079575 0 0 0.00088725 0 1.5026e-05 0.000984974 0 
2.05259e-05 0.0010055 0 9.76417e-05 0.00105638 0 0.000176881 0.00110213 0 
0.000256119 0.00114787 0 0.000335358 0.00119362 0 0.000433 0.00122875 0 
0.000530642 0.00119362 0 0.000609881 0.00114787 0 0.000689119 0.00110213 0 
0.000768358 0.00105638 0 0.000847597 0.000989375 0 0.000866 0.00088725 0 
0.000866 0.00079575 0 0.000866 0.00070425 0 0.000866 0.00061275 0 
0.000847597 0.000510625 0 0.000530642 0.000306375 0 0.000609881 0.000352125 0 
0.000689119 0.000397875 0 0.000768358 0.000443625 0 0.000433 0.00027125 0 
0.000433 0.0007925 0 0.0003905 0.00075 0 0.000433 0.0007075 0 
0.000448026 0.000234974 0 0.000453526 0.0002555 0 0.000866 0.00047875 0 
0.000963642 0.000443625 0 0.00104288 0.000397875 0 0.00112212 0.000352125 0 
0.00120136 0.000306375 0 0.0012806 0.000239375 0 0.001299 0.00013725 0 
0.001299 4.575e-05 0 0.001299 -4.575e-05 0 0.001299 -0.00013725 0 
0.0012806 -0.000239375 0 0.00120136 -0.000306375 0 0.00112212 -0.000352125 0 
0.00104288 -0.000397875 0 0.000963642 -0.000443625 0 0.000866 -0.00047875 0 
0.000530642 -0.000306375 0 0.000609881 -0.000352125 0 0.000689119 -0.000397875 0 
0.000768358 -0.000443625 0 0.000453526 -0.0002555 0 0.000448026 -0.000234974 0 
0.000866 4.25e-05 0 0.0008235 -3.53397e-19 0 0.000866 -4.25e-05 0 
0.000433 -0.00027125 0 0.000847597 -0.000510625 0 0.000866 -0.00061275 0 
0.000866 -0.00070425 0 0.000866 -0.00079575 0 0.000866 -0.00088725 0 
0.000847597 -0.000989375 0 0.000768358 -0.00105638 0 0.000689119 -0.00110213 0 
0.000609881 -0.00114787 0 0.000530642 -0.00119362 0 0.000433 -0.00122875 0 
0.000335358 -0.00119362 0 0.000256119 -0.00114787 0 0.000176881 -0.00110213 0 
9.76417e-05 -0.00105638 0 2.05259e-05 -0.0010055 0 1.5026e-05 -0.000984974 0 
0 -0.00061275 0 0 -0.00070425 0 0 -0.00079575 0 
0 -0.00088725 0 1.5026e-05 -0.000515026 0 2.05259e-05 -0.0004945 0 
0.000433 -0.0007075 0 0.0003905 -0.00075 0 0.000433 -0.0007925 0 
-1.84031e-05 -0.000510625 0 -1.84031e-05 -0.000989375 0 -9.76417e-05 -0.00105638 0 
-0.000176881 -0.00110213 0 -0.000256119 -0.00114787 0 -0.000335358 -0.00119362 0 
-0.000433 -0.00122875 0 -0.000530642 -0.00119362 0 -0.000609881 -0.00114787 0 
-0.000689119 -0.00110213 0 -0.000768358 -0.00105638 0 -0.000845474 -0.0010055 0 
-0.000850974 -0.000984974 0 -0.000866 -0.00088725 0 -0.000866 -0.00079575 0 
-0.000866 -0.00070425 0 -0.000866 -0.00061275 0 -0.000850974 -0.000515026 0 
-0.000845474 -0.0004945 0 -0.000530642 -0.000306375 0 -0.000609881 -0.000352125 0 
-0.000689119 -0.000397875 0 -0.000768358 -0.000443625 0 -0.000433 -0.00027125 0 
-0.000433 -0.0007075 0 -0.0004755 -0.00075 0 -0.000433 -0.0007925 0 
-0.000451403 -0.000239375 0 -0.000866 -0.00047875 0 -0.000963642 -0.000443625 0 
-0.00104288 -0.000397875 0 -0.00112212 -0.000352125 0 -0.00120136 -0.000306375 0 
-0.00127847 -0.0002555 0 -0.00128397 -0.000234974 0 -0.001299 -0.00013725 0 
-0.001299 -4.575e-05 0 -0.001299 4.575e-05 0 -0.001299 0.00013725 0 
-0.00128397 0.000234974 0 -0.00127847 0.0002555 0 -0.00120136 0.000306375 0 
-0.00112212 0.000352125 0 -0.00104288 0.000397875 0 -0.000963642 0.000443625 0 
-0.000866 0.00047875 0 -0.000530642 0.000306375 0 -0.000609881 0.000352125 0 
-0.000689119 0.000397875 0 -0.000768358 0.000443625 0 -0.000451403 0.000239375 0 
-0.000866 4.25e-05 0 -0.0009085 -3.53397e-19 0 -0.000866 -4.25e-05 0 
-0.000433 0.00027125 0 -0.000845474 0.0004945 0 -0.000850974 0.000515026 0 
-0.000866 0.00061275 0 -0.000866 0.00070425 0 -0.000866 0.00079575 0 
-0.000866 0.00088725 0 -0.000850974 0.000984974 0 -0.000845474 0.0010055 0 
-0.000768358 0.00105638 0 -0.000689119 0.00110213 0 -0.000609881 0.00114787 0 
-0.000530642 0.00119362 0 -0.000433 0.00122875 0 -0.000335358 0.00119362 0 
-0.000256119 0.00114787 0 -0.000176881 0.00110213 0 -9.76417e-05 0.00105638 0 
-1.84031e-05 0.000989375 0 -1.84031e-05 0.000510625 0 -0.000433 0.0007925 0 
-0.0004755 0.00075 0 -0.000433 0.0007075 0 -9.82724e-20 0.00047875 -0.0005 
-0.000335358 0.000306375 -0.0005 -0.000256119 0.000352125 -0.0005 -0.000176881 0.000397875 -0.0005 
-9.76417e-05 0.000443625 -0.0005 -0.000412474 0.0002555 -0.0005 -0.000417974 0.000234974 -0.0005 
-0.000433 -0.00013725 -0.0005 -0.000433 -4.575e-05 -0.0005 -0.000433 4.575e-05 -0.0005 
-0.000433 0.00013725 -0.0005 -0.000417974 -0.000234974 -0.0005 -0.000412474 -0.0002555 -0.0005 
[...]
POINT_DATA 2586
VECTORS displacement float
-6.66165e-10 5.11593e-08 3.20096e-08
3.96528e-09 5.08198e-08 3.20401e-08
-4.26841e-08 3.18012e-08 3.363e-08
-4.22782e-08 3.03076e-08 3.36451e-08
-4.48191e-08 2.79001e-08 3.46154e-08
-4.48656e-08 -2.79271e-08 3.46189e-08
-4.23254e-08 -3.03359e-08 3.36506e-08
-4.27311e-08 -3.18297e-08 3.36359e-08
-6.7007e-10 -5.10578e-08 3.21054e-08
3.95293e-09 -5.08703e-08 3.19549e-08
4.22687e-08 -2.6421e-08 3.19255e-08
4.45736e-08 -2.24576e-08 3.20078e-08
4.46312e-08 2.24854e-08 3.20224e-08
4.23118e-08 2.65142e-08 3.20208e-08
0 0 0
4.33807e-09 5.21327e-08 3.19638e-08
1.97431e-09 5.5118e-08 3.20823e-08
6.57901e-09 1.01922e-07 3.21073e-08
8.55992e-09 1.05203e-07 3.18902e-08
8.2716e-09 1.06969e-07 3.19365e-08
4.71452e-08 1.27167e-07 3.17223e-08
5.33035e-08 1.26987e-07 3.15746e-08
9.15919e-08 1.02161e-07 3.16005e-08
9.44749e-08 9.67429e-08 3.16428e-08
9.16619e-08 5.28915e-08 3.19897e-08
8.81858e-08 4.88641e-08 3.19505e-08
4.69898e-08 2.63833e-08 3.19302e-08
4.98427e-08 7.48494e-08 1.27372e-08
4.72578e-08 2.51257e-08 3.18804e-08
9.34769e-08 4.96935e-08 3.20559e-08
1.31802e-07 2.81869e-08 3.16297e-08
1.34883e-07 2.289e-08 3.16711e-08
1.34848e-07 -2.29371e-08 3.16481e-08
1.31766e-07 -2.82431e-08 3.16111e-08
9.34419e-08 -4.9801e-08 3.18585e-08
8.81816e-08 -4.88394e-08 3.20036e-08
4.69539e-08 -2.64506e-08 3.20162e-08
4.72102e-08 -2.51692e-08 3.19376e-08
9.11398e-08 1.95656e-11 1.27014e-08
9.16442e-08 -5.28938e-08 3.19912e-08
9.44594e-08 -9.67787e-08 3.16809e-08
9.15668e-08 -1.02188e-07 3.16352e-08
5.32696e-08 -1.2698e-07 3.15706e-08
4.71108e-08 -1.27162e-07 3.17193e-08
8.23147e-09 -1.06949e-07 3.19283e-08
8.51856e-09 -1.05183e-07 3.18814e-08
6.52717e-09 -1.01897e-07 3.20933e-08
1.9871e-09 -5.50823e-08 3.20982e-08
4.33708e-09 -5.21608e-08 3.19077e-08
4.97895e-08 -7.52225e-08 1.27383e-08
5.21247e-09 -1.07112e-07 3.20551e-08
-2.74876e-08 -1.36331e-07 3.17107e-08
-3.36326e-08 -1.37098e-07 3.18544e-08
-7.78755e-08 -1.23285e-07 3.18242e-08
-7.79207e-08 -1.21468e-07 3.17761e-08
-8.18238e-08 -1.18113e-07 3.19267e-08
-9.48544e-08 -7.47757e-08 3.41008e-08
-9.28741e-08 -7.07231e-08 3.47303e-08
-9.39778e-08 -6.9467e-08 3.51801e-08
-4.7556e-08 -3.28275e-08 3.46231e-08
-3.65114e-08 -8.31299e-08 1.28472e-08
-1.00569e-07 -7.14797e-08 3.62874e-08
-1.66535e-07 -4.10206e-08 3.84265e-08
-1.66174e-07 -3.93044e-08 3.8421e-08
-1.69708e-07 -3.59339e-08 3.84567e-08
-1.697e-07 3.59192e-08 3.84571e-08
-1.66165e-07 3.92891e-08 3.84214e-08
-1.66525e-07 4.10055e-08 3.84268e-08
-1.00451e-07 7.14374e-08 3.62422e-08
-9.40606e-08 6.94341e-08 3.52395e-08
-4.75147e-08 3.27942e-08 3.46191e-08
-9.98956e-08 -1.10476e-11 3.62405e-08
-9.29398e-08 7.06909e-08 3.47765e-08
-9.48934e-08 7.47513e-08 3.4127e-08
-8.17726e-08 1.18079e-07 3.19283e-08
-7.78708e-08 1.21432e-07 3.17785e-08
-7.78254e-08 1.2325e-07 3.18268e-08
-3.38316e-08 1.37068e-07 3.17185e-08
-2.76874e-08 1.36341e-07 3.18635e-08
5.25411e-09 1.07131e-07 3.2072e-08
-3.64829e-08 8.32242e-08 1.28404e-08
-6.66165e-10 5.11593e-08 -3.20096e-08
3.96528e-09 5.08198e-08 -3.20401e-08
-4.26841e-08 3.18012e-08 -3.363e-08
-4.22782e-08 3.03076e-08 -3.36451e-08
-4.48191e-08 2.79001e-08 -3.46154e-08
-4.48656e-08 -2.79271e-08 -3.46189e-08
-4.23254e-08 -3.03359e-08 -3.36506e-08
-4.27311e-08 -3.18297e-08 -3.36359e-08
-6.7007e-10 -5.10578e-08 -3.21054e-08
3.95293e-09 -5.08703e-08 -3.19549e-08
4.22687e-08 -2.6421e-08 -3.19255e-08
4.45736e-08 -2.24576e-08 -3.20078e-08
4.46312e-08 2.24854e-08 -3.20224e-08
4.23118e-08 2.65142e-08 -3.20208e-08
0 0 0
4.33807e-09 5.21327e-08 -3.19638e-08
1.97431e-09 5.5118e-08 -3.20823e-08
6.57901e-09 1.01922e-07 -3.21073e-08
8.55992e-09 1.05203e-07 -3.18902e-08
8.2716e-09 1.06969e-07 -3.19365e-08
4.71452e-08 1.27167e-07 -3.17223e-08
5.33035e-08 1.26987e-07 -3.15746e-08
9.15919e-08 1.02161e-07 -3.16005e-08
9.44749e-08 9.67429e-08 -3.16428e-08
9.16619e-08 5.28915e-08 -3.19897e-08
8.81858e-08 4.88641e-08 -3.19505e-08
4.69898e-08 2.63833e-08 -3.19302e-08
4.98427e-08 7.48494e-08 -1.27372e-08
4.72578e-08 2.51257e-08 -3.18804e-08
9.34769e-08 4.96935e-08 -3.20559e-08
1.31802e-07 2.81869e-08 -3.16297e-08
1.34883e-07 2.289e-08 -3.16711e-08
1.34848e-07 -2.29371e-08 -3.16481e-08
1.31766e-07 -2.82431e-08 -3.16111e-08
9.34419e-08 -4.9801e-08 -3.18585e-08
8.81816e-08 -4.88394e-08 -3.20036e-08
4.69539e-08 -2.64506e-08 -3.20162e-08
4.72102e-08 -2.51692e-08 -3.19376e-08
9.11398e-08 1.95656e-11 -1.27014e-08
9.16442e-08 -5.28938e-08 -3.19912e-08
9.44594e-08 -9.67787e-08 -3.16809e-08
9.15668e-08 -1.02188e-07 -3.16352e-08
5.32696e-08 -1.2698e-07 -3.15706e-08
4.71108e-08 -1.27162e-07 -3.17193e-08
8.23147e-09 -1.06949e-07 -3.19283e-08
8.51856e-09 -1.05183e-07 -3.18814e-08
6.52717e-09 -1.01897e-07 -3.20933e-08
1.9871e-09 -5.50823e-08 -3.20982e-08
4.33708e-09 -5.21608e-08 -3.19077e-08
4.97895e-08 -7.52225e-08 -1.27383e-08
5.21247e-09 -1.07112e-07 -3.20551e-08
-2.74876e-08 -1.36331e-07 -3.17107e-08
-3.36326e-08 -1.37098e-07 -3.18544e-08
-7.78755e-08 -1.23285e-07 -3.18242e-08
-7.79207e-08 -1.21468e-07 -3.17761e-08
-8.18238e-08 -1.18113e-07 -3.19267e-08
-9.48544e-08 -7.47757e-08 -3.41008e-08
-9.28741e-08 -7.07231e-08 -3.47303e-08
-9.39778e-08 -6.9467e-08 -3.51801e-08
-4.7556e-08 -3.28275e-08 -3.46231e-08
-3.65114e-08 -8.31299e-08 -1.28472e-08
-1.00569e-07 -7.14797e-08 -3.62874e-08
-1.66535e-07 -4.10206e-08 -3.84265e-08
-1.66174e-07 -3.93044e-08 -3.8421e-08
-1.69708e-07 -3.59339e-08 -3.84567e-08
-1.697e-07 3.59192e-08 -3.84571e-08
-1.66165e-07 3.92891e-08 -3.84214e-08
-1.66525e-07 4.10055e-08 -3.84268e-08
-1.00451e-07 7.14374e-08 -3.62422e-08
-9.40606e-08 6.94341e-08 -3.52395e-08
-4.75147e-08 3.27942e-08 -3.46191e-08
-9.98956e-08 -1.10476e-11 -3.62405e-08
-9.29398e-08 7.06909e-08 -3.47765e-08
-9.48934e-08 7.47513e-08 -3.4127e-08
-8.17726e-08 1.18079e-07 -3.19283e-08
-7.78708e-08 1.21432e-07 -3.17785e-08
-7.78254e-08 1.2325e-07 -3.18268e-08
-3.38316e-08 1.37068e-07 -3.17185e-08
-2.76874e-08 1.36341e-07 -3.18635e-08
5.25411e-09 1.07131e-07 -3.2072e-08
-3.64829e-08 8.32242e-08 -1.28404e-08
1.60296e-09 4.98003e-08 3.18847e-08
-3.28116e-08 3.64354e-08 3.08569e-08
-2.50679e-08 3.97385e-08 2.86472e-08
-1.79093e-08 4.28664e-08 2.83922e-08
-1.03378e-08 4.62896e-08 3.00459e-08
-4.23501e-08 3.1035e-08 3.36503e-08
-4.30133e-08 2.85299e-08 3.40006e-08
-4.49198e-08 -1.57449e-08 3.36251e-08
-4.47514e-08 -5.13054e-09 3.27574e-08
-4.47293e-08 5.10945e-09 3.27262e-08
-4.48911e-08 1.57194e-08 3.3635e-08
-4.30604e-08 -2.85577e-08 3.4005e-08
-4.23973e-08 -3.10635e-08 3.36562e-08
-1.03235e-08 -4.62947e-08 3.00361e-08
-1.79392e-08 -4.28518e-08 2.84876e-08
-2.51127e-08 -3.97476e-08 2.86638e-08
-3.28589e-08 -3.6458e-08 3.08662e-08
1.55584e-09 -4.9771e-08 3.18904e-08
3.31115e-08 -3.19667e-08 2.98285e-08
2.61801e-08 -3.61886e-08 2.79865e-08
1.9803e-08 -4.02938e-08 2.79909e-08
1.29704e-08 -4.47658e-08 2.98525e-08
4.22786e-08 -2.38386e-08 3.18833e-08
4.42527e-08 1.18257e-08 2.98047e-08
4.41841e-08 3.7375e-09 2.80178e-08
4.41546e-08 -3.73283e-09 2.80859e-08
4.42452e-08 -1.1808e-08 2.97779e-08
4.23365e-08 2.38949e-08 3.19266e-08
1.29727e-08 4.48243e-08 2.9827e-08
1.98267e-08 4.03376e-08 2.80784e-08
2.62246e-08 3.62456e-08 2.80776e-08
3.31771e-08 3.19695e-08 2.98144e-08
0 0 0
0 0 0
0 0 0
4.31214e-09 5.15102e-08 3.2045e-08
3.56736e-09 5.39617e-08 3.19074e-08
2.634e-09 6.59738e-08 2.99009e-08
3.5272e-09 7.42898e-08 2.8241e-08
4.49201e-09 8.20563e-08 2.81828e-08
5.42297e-09 9.05728e-08 2.99459e-08
7.90753e-09 1.02979e-07 3.18997e-08
8.48596e-09 1.06101e-07 3.19486e-08
1.90162e-08 1.09437e-07 3.0035e-08
2.65124e-08 1.10822e-07 2.85258e-08
3.2426e-08 1.13998e-07 2.85382e-08
3.84075e-08 1.19451e-07 2.9878e-08
5.0052e-08 1.25718e-07 3.15198e-08
6.14474e-08 1.18548e-07 2.99212e-08
6.7127e-08 1.12316e-07 2.83747e-08
7.29102e-08 1.08453e-07 2.84047e-08
8.05753e-08 1.05984e-07 2.9806e-08
9.18515e-08 9.87401e-08 3.15441e-08
9.12519e-08 8.53128e-08 2.98378e-08
8.8437e-08 7.75265e-08 2.85902e-08
8.78959e-08 7.07618e-08 2.85364e-08
8.94301e-08 6.33164e-08 3.00983e-08
8.8777e-08 5.14137e-08 3.18935e-08
5.65077e-08 3.17491e-08 2.98726e-08
6.38053e-08 3.56173e-08 2.80397e-08
7.06637e-08 3.92951e-08 2.80633e-08
7.81959e-08 4.33299e-08 2.98907e-08
4.46739e-08 2.75712e-08 3.18403e-08
4.76166e-08 7.82915e-08 1.29238e-08
4.39369e-08 7.53242e-08 1.27777e-08
4.6695e-08 7.21148e-08 1.26095e-08
4.63102e-08 2.34691e-08 3.18498e-08
4.72956e-08 2.57071e-08 3.19466e-08
9.06667e-08 4.80446e-08 3.1861e-08
1.01122e-07 4.21546e-08 3.00914e-08
1.06653e-07 3.67424e-08 2.86292e-08
1.12584e-07 3.34491e-08 2.84899e-08
1.20508e-07 3.15221e-08 2.98471e-08
1.32188e-07 2.47718e-08 3.15749e-08
1.32211e-07 1.14427e-08 2.98631e-08
1.30111e-07 3.43842e-09 2.84002e-08
1.30016e-07 -3.57565e-09 2.85233e-08
1.32215e-07 -1.14751e-08 2.98194e-08
1.32157e-07 -2.48213e-08 3.15525e-08
1.20461e-07 -3.15807e-08 2.98437e-08
1.1253e-07 -3.34928e-08 2.84847e-08
1.06592e-07 -3.67143e-08 2.85181e-08
1.01072e-07 -4.21617e-08 3.01492e-08
9.05153e-08 -4.81428e-08 3.18038e-08
5.6452e-08 -3.17199e-08 2.98508e-08
6.37636e-08 -3.56217e-08 2.81327e-08
7.06342e-08 -3.93018e-08 2.81469e-08
7.81707e-08 -4.3337e-08 2.985e-08
4.72519e-08 -2.57639e-08 3.20214e-08
4.62512e-08 -2.34709e-08 3.18597e-08
8.83058e-08 2.82161e-09 1.28084e-08
8.47811e-08 1.98268e-10 1.29012e-08
8.79995e-08 -2.98466e-09 1.28275e-08
4.46871e-08 -2.75526e-08 3.18362e-08
8.87629e-08 -5.14049e-08 3.19037e-08
8.94273e-08 -6.3336e-08 3.00546e-08
8.77856e-08 -7.07082e-08 2.86679e-08
8.85093e-08 -7.74449e-08 2.84722e-08
9.12132e-08 -8.53523e-08 2.98938e-08
9.18287e-08 -9.87709e-08 3.15822e-08
8.0533e-08 -1.05973e-07 2.98369e-08
7.28598e-08 -1.08455e-07 2.84184e-08
6.70794e-08 -1.12304e-07 2.83545e-08
6.14104e-08 -1.18539e-07 2.99109e-08
5.00176e-08 -1.25712e-07 3.15162e-08
3.8368e-08 -1.19447e-07 2.98801e-08
3.23841e-08 -1.13982e-07 2.85427e-08
2.64767e-08 -1.10799e-07 2.85275e-08
1.89827e-08 -1.09415e-07 3.00325e-08
8.44546e-09 -1.06082e-07 3.19402e-08
7.86169e-09 -1.02957e-07 3.18885e-08
2.60883e-09 -6.59523e-08 2.99277e-08
3.52965e-09 -7.42899e-08 2.8176e-08
4.43953e-09 -8.20488e-08 2.82496e-08
5.40707e-09 -9.05544e-08 2.99212e-08
3.57896e-09 -5.39521e-08 3.18988e-08
4.30734e-09 -5.15508e-08 3.19711e-08
4.69078e-08 -7.19568e-08 1.28734e-08
4.39047e-08 -7.51512e-08 1.2777e-08
4.73399e-08 -7.81498e-08 1.26626e-08
-3.96164e-10 -5.37772e-08 3.20281e-08
4.76576e-09 -1.03803e-07 3.20026e-08
-4.27033e-09 -1.1119e-07 3.01957e-08
-1.06402e-08 -1.1435e-07 2.87084e-08
-1.53708e-08 -1.19226e-07 2.86057e-08
-2.01522e-08 -1.26657e-07 3.00952e-08
-3.09024e-08 -1.35356e-07 3.16553e-08
-4.30636e-08 -1.30664e-07 3.00234e-08
-4.98108e-08 -1.26561e-07 2.86862e-08
-5.66691e-08 -1.24751e-07 2.86386e-08
-6.54431e-08 -1.24633e-07 3.00516e-08
-7.77811e-08 -1.22378e-07 3.18352e-08
-7.94602e-08 -1.19133e-07 3.17597e-08
-8.10775e-08 -1.06729e-07 3.02809e-08
-8.10608e-08 -9.90307e-08 2.92134e-08
-8.33999e-08 -9.23534e-08 2.96026e-08
-8.82802e-08 -8.51375e-08 3.14633e-08
-9.29611e-08 -7.292e-08 3.41228e-08
-9.33156e-08 -7.00499e-08 3.50044e-08
-5.76129e-08 -4.03338e-08 3.37503e-08
-6.64045e-08 -4.71048e-08 3.29332e-08
-7.50395e-08 -5.37505e-08 3.29745e-08
-8.40696e-08 -6.07531e-08 3.40053e-08
-4.51623e-08 -3.36427e-08 3.3879e-08
-3.99321e-08 -8.07959e-08 1.32791e-08
-4.27562e-08 -8.52751e-08 1.32828e-08
-3.89659e-08 -8.72399e-08 1.29032e-08
-4.72971e-08 -2.99038e-08 3.4883e-08
-9.78055e-08 -6.91033e-08 3.59297e-08
-1.14662e-07 -6.61393e-08 3.6866e-08
-1.27897e-07 -6.02123e-08 3.71841e-08
-1.40814e-07 -5.40022e-08 3.75581e-08
-1.53613e-07 -4.76128e-08 3.80318e-08
-1.6624e-07 -4.01906e-08 3.84295e-08
-1.6729e-07 -3.69047e-08 3.84268e-08
-1.69944e-07 -2.14409e-08 3.8232e-08
-1.70068e-07 -7.14543e-09 3.80653e-08
-1.70067e-07 7.1278e-09 3.80643e-08
-1.6994e-07 2.14241e-08 3.82321e-08
-1.67282e-07 3.68894e-08 3.84271e-08
-1.6623e-07 4.01754e-08 3.84298e-08
-1.53598e-07 4.7594e-08 3.80323e-08
-1.40796e-07 5.39739e-08 3.7555e-08
-1.27889e-07 6.01894e-08 3.7168e-08
-1.14659e-07 6.61447e-08 3.68732e-08
-9.76798e-08 6.90591e-08 3.58988e-08
-5.75754e-08 4.02896e-08 3.37503e-08
-6.63723e-08 4.7053e-08 3.29402e-08
-7.50114e-08 5.36956e-08 3.30124e-08
-8.40418e-08 6.07173e-08 3.40049e-08
-4.72612e-08 2.98727e-08 3.48804e-08
-1.05796e-07 6.06098e-09 3.65279e-08
-1.11883e-07 -6.33309e-12 3.68435e-08
-1.05788e-07 -6.08456e-09 3.6542e-08
-4.5118e-08 3.36116e-08 3.38735e-08
-9.33929e-08 7.00142e-08 3.50581e-08
-9.30045e-08 7.28914e-08 3.41526e-08
-8.82956e-08 8.51092e-08 3.14787e-08
-8.33952e-08 9.23509e-08 2.96071e-08
-8.10295e-08 9.90246e-08 2.92229e-08
-8.10339e-08 1.067e-07 3.02816e-08
-7.94098e-08 1.19098e-07 3.17616e-08
-7.77312e-08 1.22343e-07 3.18377e-08
-6.53978e-08 1.24586e-07 3.0059e-08
-5.66246e-08 1.24703e-07 2.86371e-08
-4.9791e-08 1.26419e-07 2.85772e-08
-4.30431e-08 1.30605e-07 3.00951e-08
-3.08484e-08 1.35345e-07 3.16637e-08
-2.01375e-08 1.26684e-07 3.00405e-08
-1.53534e-08 1.1935e-07 2.87279e-08
-1.06017e-08 1.14394e-07 2.87267e-08
-4.2222e-09 1.11213e-07 3.02081e-08
4.80152e-09 1.03825e-07 3.20212e-08
-4.10231e-10 5.38404e-08 3.19831e-08
-3.85987e-08 8.73453e-08 1.31116e-08
-4.2725e-08 8.48484e-08 1.32878e-08
-4.02206e-08 8.0923e-08 1.30671e-08
1.60296e-09 4.98003e-08 -3.18847e-08
-3.28116e-08 3.64354e-08 -3.08569e-08
-2.50679e-08 3.97385e-08 -2.86472e-08
-1.79093e-08 4.28664e-08 -2.83922e-08
-1.03378e-08 4.62896e-08 -3.00459e-08
-4.23501e-08 3.1035e-08 -3.36503e-08
-4.30133e-08 2.85299e-08 -3.40006e-08
-4.49198e-08 -1.57449e-08 -3.36251e-08
-4.47514e-08 -5.13054e-09 -3.27574e-08
-4.47293e-08 5.10945e-09 -3.27262e-08
-4.48911e-08 1.57194e-08 -3.3635e-08
-4.30604e-08 -2.85577e-08 -3.4005e-08
-4.23973e-08 -3.10635e-08 -3.36562e-08
-1.03235e-08 -4.62947e-08 -3.00361e-08
-1.79392e-08 -4.28518e-08 -2.84876e-08
-2.51127e-08 -3.97476e-08 -2.86638e-08
-3.28589e-08 -3.6458e-08 -3.08662e-08
1.55584e-09 -4.9771e-08 -3.18904e-08
3.31115e-08 -3.19667e-08 -2.98285e-08
2.61801e-08 -3.61886e-08 -2.79865e-08
1.9803e-08 -4.02938e-08 -2.79909e-08
1.29704e-08 -4.47658e-08 -2.98525e-08
4.22786e-08 -2.38386e-08 -3.18833e-08
4.42527e-08 1.18257e-08 -2.98047e-08
4.41841e-08 3.7375e-09 -2.80178e-08
4.41546e-08 -3.73283e-09 -2.80859e-08
4.42452e-08 -1.1808e-08 -2.97779e-08
4.23365e-08 2.38949e-08 -3.19266e-08
1.29727e-08 4.48243e-08 -2.9827e-08
1.98267e-08 4.03376e-08 -2.80784e-08
2.62246e-08 3.62456e-08 -2.80776e-08
3.31771e-08 3.19695e-08 -2.98144e-08
0 0 0
0 0 0
0 0 0
4.31214e-09 5.15102e-08 -3.2045e-08
3.56736e-09 5.39617e-08 -3.19074e-08
2.634e-09 6.59738e-08 -2.99009e-08
3.5272e-09 7.42898e-08 -2.8241e-08
4.49201e-09 8.20563e-08 -2.81828e-08
5.42297e-09 9.05728e-08 -2.99459e-08
7.90753e-09 1.02979e-07 -3.18997e-08
8.48596e-09 1.06101e-07 -3.19486e-08
1.90162e-08 1.09437e-07 -3.0035e-08
2.65124e-08 1.10822e-07 -2.85258e-08
3.2426e-08 1.13998e-07 -2.85382e-08
3.84075e-08 1.19451e-07 -2.9878e-08
5.0052e-08 1.25718e-07 -3.15198e-08
6.14474e-08 1.18548e-07 -2.99212e-08
6.7127e-08 1.12316e-07 -2.83747e-08
7.29102e-08 1.08453e-07 -2.84047e-08
8.05753e-08 1.05984e-07 -2.9806e-08
9.18515e-08 9.87401e-08 -3.15441e-08
9.12519e-08 8.53128e-08 -2.98378e-08
8.8437e-08 7.75265e-08 -2.85902e-08
8.78959e-08 7.07618e-08 -2.85364e-08
8.94301e-08 6.33164e-08 -3.00983e-08
8.8777e-08 5.14137e-08 -3.18935e-08
5.65077e-08 3.17491e-08 -2.98726e-08
6.38053e-08 3.56173e-08 -2.80397e-08
7.06637e-08 3.92951e-08 -2.80633e-08
7.81959e-08 4.33299e-08 -2.98907e-08
4.46739e-08 2.75712e-08 -3.18403e-08
4.76166e-08 7.82915e-08 -1.29238e-08
4.39369e-08 7.53242e-08 -1.27777e-08
4.6695e-08 7.21148e-08 -1.26095e-08
4.63102e-08 2.34691e-08 -3.18498e-08
4.72956e-08 2.57071e-08 -3.19466e-08
9.06667e-08 4.80446e-08 -3.1861e-08
1.01122e-07 4.21546e-08 -3.00914e-08
1.06653e-07 3.67424e-08 -2.86292e-08
1.12584e-07 3.34491e-08 -2.84899e-08
1.20508e-07 3.15221e-08 -2.98471e-08
1.32188e-07 2.47718e-08 -3.15749e-08
1.32211e-07 1.14427e-08 -2.98631e-08
1.30111e-07 3.43842e-09 -2.84002e-08
1.30016e-07 -3.57565e-09 -2.85233e-08
1.32215e-07 -1.14751e-08 -2.98194e-08
1.32157e-07 -2.48213e-08 -3.15525e-08
1.20461e-07 -3.15807e-08 -2.98437e-08
1.1253e-07 -3.34928e-08 -2.84847e-08
1.06592e-07 -3.67143e-08 -2.85181e-08
1.01072e-07 -4.21617e-08 -3.01492e-08
9.05153e-08 -4.81428e-08 -3.18038e-08
5.6452e-08 -3.17199e-08 -2.98508e-08
6.37636e-08 -3.56217e-08 -2.81327e-08
7.06342e-08 -3.93018e-08 -2.81469e-08
7.81707e-08 -4.3337e-08 -2.985e-08
4.72519e-08 -2.57639e-08 -3.20214e-08
4.62512e-08 -2.34709e-08 -3.18597e-08
8.83058e-08 2.82161e-09 -1.28084e-08
8.47811e-08 1.98268e-10 -1.29012e-08
8.79995e-08 -2.98466e-09 -1.28275e-08
4.46871e-08 -2.75526e-08 -3.18362e-08
8.87629e-08 -5.14049e-08 -3.19037e-08
8.94273e-08 -6.3336e-08 -3.00546e-08
8.77856e-08 -7.07082e-08 -2.86679e-08
8.85093e-08 -7.74449e-08 -2.84722e-08
9.12132e-08 -8.53523e-08 -2.98938e-08
9.18287e-08 -9.87709e-08 -3.15822e-08
8.0533e-08 -1.05973e-07 -2.98369e-08
7.28598e-08 -1.08455e-07 -2.84184e-08
6.70794e-08 -1.12304e-07 -2.83545e-08
6.14104e-08 -1.18539e-07 -2.99109e-08
5.00176e-08 -1.25712e-07 -3.15162e-08
3.8368e-08 -1.19447e-07 -2.98801e-08
3.23841e-08 -1.13982e-07 -2.85427e-08
2.64767e-08 -1.10799e-07 -2.85275e-08
1.89827e-08 -1.09415e-07 -3.00325e-08
8.44546e-09 -1.06082e-07 -3.19402e-08
7.86169e-09 -1.02957e-07 -3.18885e-08
2.60883e-09 -6.59523e-08 -2.99277e-08
3.52965e-09 -7.42899e-08 -2.8176e-08
4.43953e-09 -8.20488e-08 -2.82496e-08
5.40707e-09 -9.05544e-08 -2.99212e-08
3.57896e-09 -5.39521e-08 -3.18988e-08
4.30734e-09 -5.15508e-08 -3.19711e-08
4.69078e-08 -7.19568e-08 -1.28734e-08
4.39047e-08 -7.51512e-08 -1.2777e-08
4.73399e-08 -7.81498e-08 -1.26626e-08
-3.96164e-10 -5.37772e-08 -3.20281e-08
4.76576e-09 -1.03803e-07 -3.20026e-08
-4.27033e-09 -1.1119e-07 -3.01957e-08
-1.06402e-08 -1.1435e-07 -2.87084e-08
-1.53708e-08 -1.19226e-07 -2.86057e-08
-2.01522e-08 -1.26657e-07 -3.00952e-08
-3.09024e-08 -1.35356e-07 -3.16553e-08
-4.30636e-08 -1.30664e-07 -3.00234e-08
-4.98108e-08 -1.26561e-07 -2.86862e-08
-5.66691e-08 -1.24751e-07 -2.86386e-08
-6.54431e-08 -1.24633e-07 -3.00516e-08
-7.77811e-08 -1.22378e-07 -3.18352e-08
-7.94602e-08 -1.19133e-07 -3.17597e-08
-8.10775e-08 -1.06729e-07 -3.02809e-08
-8.10608e-08 -9.90307e-08 -2.92134e-08
-8.33999e-08 -9.23534e-08 -2.96026e-08
-8.82802e-08 -8.51375e-08 -3.14633e-08
-9.29611e-08 -7.292e-08 -3.41228e-08
-9.33156e-08 -7.00499e-08 -3.50044e-08
-5.76129e-08 -4.03338e-08 -3.37503e-08
-6.64045e-08 -4.71048e-08 -3.29332e-08
-7.50395e-08 -5.37505e-08 -3.29745e-08
-8.40696e-08 -6.07531e-08 -3.40053e-08
-4.51623e-08 -3.36427e-08 -3.3879e-08
-3.99321e-08 -8.07959e-08 -1.32791e-08
-4.27562e-08 -8.52751e-08 -1.32828e-08
-3.89659e-08 -8.72399e-08 -1.29032e-08
-4.72971e-08 -2.99038e-08 -3.4883e-08
-9.78055e-08 -6.91033e-08 -3.59297e-08
-1.14662e-07 -6.61393e-08 -3.6866e-08
-1.27897e-07 -6.02123e-08 -3.71841e-08
-1.40814e-07 -5.40022e-08 -3.75581e-08
-1.53613e-07 -4.76128e-08 -3.80318e-08
-1.6624e-07 -4.01906e-08 -3.84295e-08
-1.6729e-07 -3.69047e-08 -3.84268e-08
-1.69944e-07 -2.14409e-08 -3.8232e-08
-1.70068e-07 -7.14543e-09 -3.80653e-08
-1.70067e-07 7.1278e-09 -3.80643e-08
-1.6994e-07 2.14241e-08 -3.82321e-08
-1.67282e-07 3.68894e-08 -3.84271e-08
-1.6623e-07 4.01754e-08 -3.84298e-08
-1.53598e-07 4.7594e-08 -3.80323e-08
-1.40796e-07 5.39739e-08 -3.7555e-08
-1.27889e-07 6.01894e-08 -3.7168e-08
-1.14659e-07 6.61447e-08 -3.68732e-08
-9.76798e-08 6.90591e-08 -3.58988e-08
-5.75754e-08 4.02896e-08 -3.37503e-08
-6.63723e-08 4.7053e-08 -3.29402e-08
-7.50114e-08 5.36956e-08 -3.30124e-08
-8.40418e-08 6.07173e-08 -3.40049e-08