# vtk DataFile Version 3.0
vtk output at time 0.7
ASCII
DATASET UNSTRUCTURED_GRID
POINTS 2586 float
-1.84029e-05 0.000489375 0 1.84029e-05 0.000489375 0 -0.000414597 0.000260625 0 
-0.00041175 0.00025 0 -0.000433 0.00022875 0 -0.000433 -0.00022875 0 
-0.00041175 -0.00025 0 -0.000414597 -0.000260625 0 -1.84029e-05 -0.000489375 0 
1.84029e-05 -0.000489375 0 0.000414597 -0.000260625 0 0.000433 -0.00022875 0 
0.000433 0.00022875 0 0.000414597 0.000260625 0 4.25e-05 0 0 
2.125e-05 0.0005 0 5.90898e-17 0.00052125 0 5.90919e-17 0.00097875 0 
2.125e-05 0.001 0 1.84029e-05 0.00101063 0 0.000414597 0.00123937 0 
0.000451403 0.00123937 0 0.000847597 0.00101063 0 0.000866 0.00097875 0 
0.000866 0.00052125 0 0.000847597 0.000489375 0 0.000451403 0.000260625 0 
0.0004755 0.00075 0 0.00045425 0.00025 0 0.000884403 0.000489375 0 
0.0012806 0.000260625 0 0.001299 0.00022875 0 0.001299 -0.00022875 0 
0.0012806 -0.000260625 0 0.000884403 -0.000489375 0 0.000847597 -0.000489375 0 
0.000451403 -0.000260625 0 0.00045425 -0.00025 0 0.0009085 0 0 
0.000866 -0.00052125 0 0.000866 -0.00097875 0 0.000847597 -0.00101063 0 
0.000451403 -0.00123937 0 0.000414597 -0.00123937 0 1.84029e-05 -0.00101063 0 
2.125e-05 -0.001 0 5.90898e-17 -0.00097875 0 5.90919e-17 -0.00052125 0 
2.125e-05 -0.0005 0 0.0004755 -0.00075 0 -1.84029e-05 -0.00101063 0 
-0.000414597 -0.00123937 0 -0.000451403 -0.00123937 0 -0.000847597 -0.00101063 0 
-0.00084475 -0.001 0 -0.000866 -0.00097875 0 -0.000866 -0.00052125 0 
-0.00084475 -0.0005 0 -0.000847597 -0.000489375 0 -0.000451403 -0.000260625 0 
-0.0003905 -0.00075 0 -0.000884403 -0.000489375 0 -0.0012806 -0.000260625 0 
-0.00127775 -0.00025 0 -0.001299 -0.00022875 0 -0.001299 0.00022875 0 
-0.00127775 0.00025 0 -0.0012806 0.000260625 0 -0.000884403 0.000489375 0 
-0.000847597 0.000489375 0 -0.000451403 0.000260625 0 -0.0008235 0 0 
-0.00084475 0.0005 0 -0.000866 0.00052125 0 -0.000866 0.00097875 0 
-0.00084475 0.001 0 -0.000847597 0.00101063 0 -0.000451403 0.00123937 0 
-0.000414597 0.00123937 0 -1.84029e-05 0.00101063 0 -0.0003905 0.00075 0 
-1.84029e-05 0.000489375 -0.0005 1.84029e-05 0.000489375 -0.0005 -0.000414597 0.000260625 -0.0005 
-0.00041175 0.00025 -0.0005 -0.000433 0.00022875 -0.0005 -0.000433 -0.00022875 -0.0005 
-0.00041175 -0.00025 -0.0005 -0.000414597 -0.000260625 -0.0005 -1.84029e-05 -0.000489375 -0.0005 
1.84029e-05 -0.000489375 -0.0005 0.000414597 -0.000260625 -0.0005 0.000433 -0.00022875 -0.0005 
0.000433 0.00022875 -0.0005 0.000414597 0.000260625 -0.0005 4.25e-05 0 -0.0005 
2.125e-05 0.0005 -0.0005 5.90898e-17 0.00052125 -0.0005 5.90919e-17 0.00097875 -0.0005 
2.125e-05 0.001 -0.0005 1.84029e-05 0.00101063 -0.0005 0.000414597 0.00123937 -0.0005 
0.000451403 0.00123937 -0.0005 0.000847597 0.00101063 -0.0005 0.000866 0.00097875 -0.0005 
0.000866 0.00052125 -0.0005 0.000847597 0.000489375 -0.0005 0.000451403 0.000260625 -0.0005 
0.0004755 0.00075 -0.0005 0.00045425 0.00025 -0.0005 0.000884403 0.000489375 -0.0005 
0.0012806 0.000260625 -0.0005 0.001299 0.00022875 -0.0005 0.001299 -0.00022875 -0.0005 
0.0012806 -0.000260625 -0.0005 0.000884403 -0.000489375 -0.0005 0.000847597 -0.000489375 -0.0005 
0.000451403 -0.000260625 -0.0005 0.00045425 -0.00025 -0.0005 0.0009085 0 -0.0005 
0.000866 -0.00052125 -0.0005 0.000866 -0.00097875 -0.0005 0.000847597 -0.00101063 -0.0005 
0.000451403 -0.00123937 -0.0005 0.000414597 -0.00123937 -0.0005 1.84029e-05 -0.00101063 -0.0005 
2.125e-05 -0.001 -0.0005 5.90898e-17 -0.00097875 -0.0005 5.90919e-17 -0.00052125 -0.0005 
2.125e-05 -0.0005 -0.0005 0.0004755 -0.00075 -0.0005 -1.84029e-05 -0.00101063 -0.0005 
-0.000414597 -0.00123937 -0.0005 -0.000451403 -0.00123937 -0.0005 -0.000847597 -0.00101063 -0.0005 
-0.00084475 -0.001 -0.0005 -0.000866 -0.00097875 -0.0005 -0.000866 -0.00052125 -0.0005 
-0.00084475 -0.0005 -0.0005 -0.000847597 -0.000489375 -0.0005 -0.000451403 -0.000260625 -0.0005 
-0.0003905 -0.00075 -0.0005 -0.000884403 -0.000489375 -0.0005 -0.0012806 -0.000260625 -0.0005 
-0.00127775 -0.00025 -0.0005 -0.001299 -0.00022875 -0.0005 -0.001299 0.00022875 -0.0005 
-0.00127775 0.00025 -0.0005 -0.0012806 0.000260625 -0.0005 -0.000884403 0.000489375 -0.0005 
-0.000847597 0.000489375 -0.0005 -0.000451403 0.000260625 -0.0005 -0.0008235 0 -0.0005 
-0.00084475 0.0005 -0.0005 -0.000866 0.00052125 -0.0005 -0.000866 0.00097875 -0.0005 
-0.00084475 0.001 -0.0005 -0.000847597 0.00101063 -0.0005 -0.000451403 0.00123937 -0.0005 
-0.000414597 0.00123937 -0.0005 -1.84029e-05 0.00101063 -0.0005 -0.0003905 0.00075 -0.0005 
-9.82724e-20 0.00047875 0 -0.000335358 0.000306375 0 -0.000256119 0.000352125 0 
-0.000176881 0.000397875 0 -9.76417e-05 0.000443625 0 -0.000412474 0.0002555 0 
-0.000417974 0.000234974 0 -0.000433 -0.00013725 0 -0.000433 -4.575e-05 0 
-0.000433 4.575e-05 0 -0.000433 0.00013725 0 -0.000417974 -0.000234974 0 
-0.000412474 -0.0002555 0 -9.76417e-05 -0.000443625 0 -0.000176881 -0.000397875 0 
-0.000256119 -0.000352125 0 -0.000335358 -0.000306375 0 -1.07223e-19 -0.00047875 0 
0.000335358 -0.000306375 0 0.000256119 -0.000352125 0 0.000176881 -0.000397875 0 
9.76417e-05 -0.000443625 0 0.000414597 -0.000239375 0 0.000433 0.00013725 0 
0.000433 4.575e-05 0 0.000433 -4.575e-05 0 0.000433 -0.00013725 0 
0.000414597 0.000239375 0 9.76417e-05 0.000443625 0 0.000176881 0.000397875 0 
0.000256119 0.000352125 0 0.000335358 0.000306375 0 -1.29514e-19 4.25e-05 0 
-4.25e-05 -3.53397e-19 0 4.07417e-19 -4.25e-05 0 2.05259e-05 0.0004945 0 
1.5026e-05 0.000515026 0 0 0.00061275 0 0 0.00070425 0 
0 0.00079575 0 0 0.00088725 0 1.5026e-05 0.000984974 0 
2.05259e-05 0.0010055 0 9.76417e-05 0.00105638 0 0.000176881 0.00110213 0 
0.000256119 0.00114787 0 0.000335358 0.00119362 0 0.000433 0.00122875 0 
0.000530642 0.00119362 0 0.000609881 0.00114787 0 0.000689119 0.00110213 0 
0.000768358 0.00105638 0 0.000847597 0.000989375 0 0.000866 0.00088725 0 
0.000866 0.00079575 0 0.000866 0.00070425 0 0.000866 0.00061275 0 
0.000847597 0.000510625 0 0.000530642 0.000306375 0 0.000609881 0.000352125 0 
0.000689119 0.000397875 0 0.000768358 0.000443625 0 0.000433 0.00027125 0 
0.000433 0.0007925 0 0.0003905 0.00075 0 0.000433 0.0007075 0 
0.000448026 0.000234974 0 0.000453526 0.0002555 0 0.000866 0.00047875 0 
0.000963642 0.000443625 0 0.00104288 0.000397875 0 0.00112212 0.000352125 0 
0.00120136 0.000306375 0 0.0012806 0.000239375 0 0.001299 0.00013725 0 
0.001299 4.575e-05 0 0.001299 -4.575e-05 0 0.001299 -0.00013725 0 
0.0012806 -0.000239375 0 0.00120136 -0.000306375 0 0.00112212 -0.000352125 0 
0.00104288 -0.000397875 0 0.000963642 -0.000443625 0 0.000866 -0.00047875 0 
0.000530642 -0.000306375 0 0.000609881 -0.000352125 0 0.000689119 -0.000397875 0 
0.000768358 -0.000443625 0 0.000453526 -0.0002555 0 0.000448026 -0.000234974 0 
0.000866 4.25e-05 0 0.0008235 -3.53397e-19 0 0.000866 -4.25e-05 0 
0.000433 -0.00027125 0 0.000847597 -0.000510625 0 0.000866 -0.00061275 0 
0.000866 -0.00070425 0 0.000866 -0.00079575 0 0.000866 -0.00088725 0 
0.000847597 -0.000989375 0 0.000768358 -0.00105638 0 0.000689119 -0.00110213 0 
0.000609881 -0.00114787 0 0.000530642 -0.00119362 0 0.000433 -0.00122875 0 
0.000335358 -0.00119362 0 0.000256119 -0.00114787 0 0.000176881 -0.00110213 0 
9.76417e-05 -0.00105638 0 2.05259e-05 -0.0010055 0 1.5026e-05 -0.000984974 0 
0 -0.00061275 0 0 -0.00070425 0 0 -0.00079575 0 
0 -0.00088725 0 1.5026e-05 -0.000515026 0 2.05259e-05 -0.0004945 0 
0.000433 -0.0007075 0 0.0003905 -0.00075 0 0.000433 -0.0007925 0 
-1.84031e-05 -0.000510625 0 -1.84031e-05 -0.000989375 0 -9.76417e-05 -0.00105638 0 
-0.000176881 -0.00110213 0 -0.000256119 -0.00114787 0 -0.000335358 -0.00119362 0 
-0.000433 -0.00122875 0 -0.000530642 -0.00119362 0 -0.000609881 -0.00114787 0 
-0.000689119 -0.00110213 0 -0.000768358 -0.00105638 0 -0.000845474 -0.0010055 0 
-0.000850974 -0.000984974 0 -0.000866 -0.00088725 0 -0.000866 -0.00079575 0 
-0.000866 -0.00070425 0 -0.000866 -0.00061275 0 -0.000850974 -0.000515026 0 
-0.000845474 -0.0004945 0 -0.000530642 -0.000306375 0 -0.000609881 -0.000352125 0 
-0.000689119 -0.000397875 0 -0.000768358 -0.000443625 0 -0.000433 -0.00027125 0 
-0.000433 -0.0007075 0 -0.0004755 -0.00075 0 -0.000433 -0.0007925 0 
-0.000451403 -0.000239375 0 -0.000866 -0.00047875 0 -0.000963642 -0.000443625 0 
-0.00104288 -0.000397875 0 -0.00112212 -0.000352125 0 -0.00120136 -0.000306375 0 
-0.00127847 -0.0002555 0 -0.00128397 -0.000234974 0 -0.001299 -0.00013725 0 
-0.001299 -4.575e-05 0 -0.001299 4.575e-05 0 -0.001299 0.00013725 0 
-0.00128397 0.000234974 0 -0.00127847 0.0002555 0 -0.00120136 0.000306375 0 
-0.00112212 0.000352125 0 -0.00104288 0.000397875 0 -0.000963642 0.000443625 0 
-0.000866 0.00047875 0 -0.000530642 0.000306375 0 -0.000609881 0.000352125 0 
-0.000689119 0.000397875 0 -0.000768358 0.000443625 0 -0.000451403 0.000239375 0 
-0.000866 4.25e-05 0 -0.0009085 -3.53397e-19 0 -0.000866 -4.25e-05 0 
-0.000433 0.00027125 0 -0.000845474 0.0004945 0 -0.000850974 0.000515026 0 
-0.000866 0.00061275 0 -0.000866 0.00070425 0 -0.000866 0.00079575 0 
-0.000866 0.00088725 0 -0.000850974 0.000984974 0 -0.000845474 0.0010055 0 
-0.000768358 0.00105638 0 -0.000689119 0.00110213 0 -0.000609881 0.00114787 0 
-0.000530642 0.00119362 0 -0.000433 0.00122875 0 -0.000335358 0.00119362 0 
-0.000256119 0.00114787 0 -0.000176881 0.00110213 0 -9.76417e-05 0.00105638 0 
-1.84031e-05 0.000989375 0 -1.84031e-05 0.000510625 0 -0.000433 0.0007925 0 
-0.0004755 0.00075 0 -0.000433 0.0007075 0 -9.82724e-20 0.00047875 -0.0005 
-0.000335358 0.000306375 -0.0005 -0.000256119 0.000352125 -0.0005 -0.000176881 0.000397875 -0.0005 
-9.76417e-05 0.000443625 -0.0005 -0.000412474 0.0002555 -0.0005 -0.000417974 0.000234974 -0.0005 
-0.000433 -0.00013725 -0.0005 -0.000433 -4.575e-05 -0.0005 -0.000433 4.575e-05 -0.0005 
-0.000433 0.00013725 -0.0005 -0.000417974 -0.000234974 -0.0005 -0.000412474 -0.0002555 -0.0005 
[...]
POINT_DATA 2586
VECTORS displacement float
-2.30579e-09 1.79518e-07 1.12242e-07
1.39305e-08 1.78323e-07 1.12347e-07
-1.49783e-07 1.11638e-07 1.17956e-07
-1.48358e-07 1.06397e-07 1.18011e-07
-1.5727e-07 9.79608e-08 1.21424e-07
-1.57433e-07 -9.80563e-08 1.21436e-07
-1.48523e-07 -1.06497e-07 1.18031e-07
-1.49947e-07 -1.11738e-07 1.17977e-07
-2.31909e-09 -1.79164e-07 1.12577e-07
1.38879e-08 -1.78499e-07 1.12049e-07
1.48314e-07 -9.26891e-08 1.11943e-07
1.56391e-07 -7.8795e-08 1.12231e-07
1.56593e-07 7.88932e-08 1.12281e-07
1.48465e-07 9.30151e-08 1.12276e-07
0 0 0
1.52402e-08 1.82927e-07 1.1208e-07
6.95347e-09 1.93393e-07 1.12495e-07
2.31745e-08 3.57588e-07 1.12585e-07
3.01171e-08 3.69078e-07 1.11826e-07
2.91055e-08 3.75265e-07 1.11987e-07
1.65505e-07 4.46107e-07 1.11235e-07
1.8708e-07 4.45472e-07 1.10719e-07
3.21384e-07 3.58346e-07 1.10809e-07
3.31481e-07 3.39362e-07 1.10956e-07
3.21571e-07 1.85514e-07 1.1217e-07
3.0939e-07 1.71405e-07 1.12033e-07
1.64864e-07 9.25567e-08 1.11959e-07
1.74917e-07 2.62593e-07 4.46999e-08
1.65804e-07 8.8147e-08 1.11786e-07
3.27928e-07 1.74311e-07 1.12401e-07
4.62392e-07 9.88604e-08 1.1091e-07
4.73186e-07 8.03032e-08 1.11055e-07
4.73066e-07 -8.04654e-08 1.10975e-07
4.62268e-07 -9.90543e-08 1.10846e-07
3.27806e-07 -1.74685e-07 1.11712e-07
3.09376e-07 -1.71318e-07 1.12219e-07
1.64738e-07 -9.27907e-08 1.1226e-07
1.65637e-07 -8.82979e-08 1.11985e-07
3.19765e-07 6.93734e-11 4.45742e-08
3.21509e-07 -1.85521e-07 1.12175e-07
3.31427e-07 -3.39486e-07 1.11089e-07
3.21297e-07 -3.5844e-07 1.1093e-07
1.86962e-07 -4.45447e-07 1.10704e-07
1.65386e-07 -4.46088e-07 1.11224e-07
2.89659e-08 -3.75197e-07 1.11959e-07
2.99732e-08 -3.69009e-07 1.11795e-07
2.29937e-08 -3.57501e-07 1.12536e-07
6.99861e-09 -1.93269e-07 1.1255e-07
1.52371e-08 -1.83024e-07 1.11884e-07
1.74731e-07 -2.63901e-07 4.47037e-08
1.83999e-08 -3.75774e-07 1.12403e-07
-9.62555e-08 -4.78395e-07 1.112e-07
-1.17784e-07 -4.81096e-07 1.11701e-07
-2.73067e-07 -4.32766e-07 1.11603e-07
-2.73229e-07 -4.26396e-07 1.11436e-07
-2.86914e-07 -4.14658e-07 1.11962e-07
-3.32819e-07 -2.62597e-07 1.1962e-07
-3.25909e-07 -2.4838e-07 1.21844e-07
-3.29794e-07 -2.43976e-07 1.23428e-07
-1.66865e-07 -1.15246e-07 1.21451e-07
-1.28038e-07 -2.91766e-07 4.50915e-08
-3.52911e-07 -2.51053e-07 1.27329e-07
-5.84748e-07 -1.44074e-07 1.34886e-07
-5.8348e-07 -1.38061e-07 1.34869e-07
-5.95867e-07 -1.26266e-07 1.34991e-07
-5.9584e-07 1.26211e-07 1.34992e-07
-5.83448e-07 1.38004e-07 1.3487e-07
-5.84714e-07 1.44018e-07 1.34888e-07
-3.52496e-07 2.509e-07 1.27175e-07
-3.30086e-07 2.43861e-07 1.23636e-07
-1.66721e-07 1.15129e-07 1.21437e-07
-3.50702e-07 -3.94981e-11 1.27386e-07
-3.2614e-07 2.48267e-07 1.22005e-07
-3.32956e-07 2.62512e-07 1.19712e-07
-2.86735e-07 4.14537e-07 1.11968e-07
-2.73054e-07 4.26271e-07 1.11444e-07
-2.72892e-07 4.32642e-07 1.11612e-07
-1.1848e-07 4.80989e-07 1.11227e-07
-9.69551e-08 4.7843e-07 1.11733e-07
1.8545e-08 3.7584e-07 1.12462e-07
-1.27939e-07 2.92096e-07 4.50676e-08
-2.30579e-09 1.79518e-07 -1.12242e-07
1.39305e-08 1.78323e-07 -1.12347e-07
-1.49783e-07 1.11638e-07 -1.17956e-07
-1.48358e-07 1.06397e-07 -1.18011e-07
-1.5727e-07 9.79608e-08 -1.21424e-07
-1.57433e-07 -9.80563e-08 -1.21436e-07
-1.48523e-07 -1.06497e-07 -1.18031e-07
-1.49947e-07 -1.11738e-07 -1.17977e-07
-2.31909e-09 -1.79164e-07 -1.12577e-07
1.38879e-08 -1.78499e-07 -1.12049e-07
1.48314e-07 -9.26891e-08 -1.11943e-07
1.56391e-07 -7.8795e-08 -1.12231e-07
1.56593e-07 7.88932e-08 -1.12281e-07
1.48465e-07 9.30151e-08 -1.12276e-07
0 0 0
1.52402e-08 1.82927e-07 -1.1208e-07
6.95347e-09 1.93393e-07 -1.12495e-07
2.31745e-08 3.57588e-07 -1.12585e-07
3.01171e-08 3.69078e-07 -1.11826e-07
2.91055e-08 3.75265e-07 -1.11987e-07
1.65505e-07 4.46107e-07 -1.11235e-07
1.8708e-07 4.45472e-07 -1.10719e-07
3.21384e-07 3.58346e-07 -1.10809e-07
3.31481e-07 3.39362e-07 -1.10956e-07
3.21571e-07 1.85514e-07 -1.1217e-07
3.0939e-07 1.71405e-07 -1.12033e-07
1.64864e-07 9.25567e-08 -1.11959e-07
1.74917e-07 2.62593e-07 -4.46999e-08
1.65804e-07 8.8147e-08 -1.11786e-07
3.27928e-07 1.74311e-07 -1.12401e-07
4.62392e-07 9.88604e-08 -1.1091e-07
4.73186e-07 8.03032e-08 -1.11055e-07
4.73066e-07 -8.04654e-08 -1.10975e-07
4.62268e-07 -9.90543e-08 -1.10846e-07
3.27806e-07 -1.74685e-07 -1.11712e-07
3.09376e-07 -1.71318e-07 -1.12219e-07
1.64738e-07 -9.27907e-08 -1.1226e-07
1.65637e-07 -8.82979e-08 -1.11985e-07
3.19765e-07 6.93734e-11 -4.45742e-08
3.21509e-07 -1.85521e-07 -1.12175e-07
3.31427e-07 -3.39486e-07 -1.11089e-07
3.21297e-07 -3.5844e-07 -1.1093e-07
1.86962e-07 -4.45447e-07 -1.10704e-07
1.65386e-07 -4.46088e-07 -1.11224e-07
2.89659e-08 -3.75197e-07 -1.11959e-07
2.99732e-08 -3.69009e-07 -1.11795e-07
2.29937e-08 -3.57501e-07 -1.12536e-07
6.99861e-09 -1.93269e-07 -1.1255e-07
1.52371e-08 -1.83024e-07 -1.11884e-07
1.74731e-07 -2.63901e-07 -4.47037e-08
1.83999e-08 -3.75774e-07 -1.12403e-07
-9.62555e-08 -4.78395e-07 -1.112e-07
-1.17784e-07 -4.81096e-07 -1.11701e-07
-2.73067e-07 -4.32766e-07 -1.11603e-07
-2.73229e-07 -4.26396e-07 -1.11436e-07
-2.86914e-07 -4.14658e-07 -1.11962e-07
-3.32819e-07 -2.62597e-07 -1.1962e-07
-3.25909e-07 -2.4838e-07 -1.21844e-07
-3.29794e-07 -2.43976e-07 -1.23428e-07
-1.66865e-07 -1.15246e-07 -1.21451e-07
-1.28038e-07 -2.91766e-07 -4.50915e-08
-3.52911e-07 -2.51053e-07 -1.27329e-07
-5.84748e-07 -1.44074e-07 -1.34886e-07
-5.8348e-07 -1.38061e-07 -1.34869e-07
-5.95867e-07 -1.26266e-07 -1.34991e-07
-5.9584e-07 1.26211e-07 -1.34992e-07
-5.83448e-07 1.38004e-07 -1.3487e-07
-5.84714e-07 1.44018e-07 -1.34888e-07
-3.52496e-07 2.509e-07 -1.27175e-07
-3.30086e-07 2.43861e-07 -1.23636e-07
-1.66721e-07 1.15129e-07 -1.21437e-07
-3.50702e-07 -3.94981e-11 -1.27386e-07
-3.2614e-07 2.48267e-07 -1.22005e-07
-3.32956e-07 2.62512e-07 -1.19712e-07
-2.86735e-07 4.14537e-07 -1.11968e-07
-2.73054e-07 4.26271e-07 -1.11444e-07
-2.72892e-07 4.32642e-07 -1.11612e-07
-1.1848e-07 4.80989e-07 -1.11227e-07
-9.69551e-08 4.7843e-07 -1.11733e-07
1.8545e-08 3.7584e-07 -1.12462e-07
-1.27939e-07 2.92096e-07 -4.50676e-08
5.64736e-09 1.74748e-07 1.11805e-07
-1.15152e-07 1.27876e-07 1.08253e-07
-8.79588e-08 1.39466e-07 1.00522e-07
-6.28154e-08 1.50442e-07 9.96214e-08
-3.62295e-08 1.62453e-07 1.05392e-07
-1.48612e-07 1.08951e-07 1.18028e-07
-1.50933e-07 1.00161e-07 1.19264e-07
-1.57625e-07 -5.53142e-08 1.18002e-07
-1.57036e-07 -1.80275e-08 1.14995e-07
-1.56959e-07 1.7953e-08 1.14886e-07
-1.57524e-07 5.52237e-08 1.18036e-07
-1.51097e-07 -1.00259e-07 1.1928e-07
-1.48778e-07 -1.09051e-07 1.18048e-07
-3.61788e-08 -1.6247e-07 1.05357e-07
-6.29198e-08 -1.50392e-07 9.99555e-08
-8.8115e-08 -1.39499e-07 1.0058e-07
-1.15317e-07 -1.27956e-07 1.08285e-07
5.48332e-09 -1.74645e-07 1.11825e-07
1.16205e-07 -1.12138e-07 1.04622e-07
9.18759e-08 -1.26963e-07 9.81871e-08
6.94872e-08 -1.41381e-07 9.82035e-08
4.55049e-08 -1.57085e-07 1.04708e-07
1.48346e-07 -8.36353e-08 1.11796e-07
1.55265e-07 4.15136e-08 1.04538e-07
1.55023e-07 1.31227e-08 9.82955e-08
1.54919e-07 -1.31058e-08 9.85344e-08
1.55239e-07 -4.14512e-08 1.04444e-07
1.48548e-07 8.3833e-08 1.11947e-07
4.55128e-08 1.5729e-07 1.04618e-07
6.95703e-08 1.41535e-07 9.85095e-08
9.20312e-08 1.27163e-07 9.85059e-08
1.16434e-07 1.12149e-07 1.04572e-07
0 0 0
0 0 0
0 0 0
1.51469e-08 1.80743e-07 1.12364e-07
1.25418e-08 1.89341e-07 1.11883e-07
9.28074e-09 2.31461e-07 1.04877e-07
1.24262e-08 2.60651e-07 9.90801e-08
1.58241e-08 2.87915e-07 9.88765e-08
1.91051e-08 3.17802e-07 1.05036e-07
2.78322e-08 3.61287e-07 1.11859e-07
2.98572e-08 3.72227e-07 1.12029e-07
6.67656e-08 3.83941e-07 1.05345e-07
9.30727e-08 3.88826e-07 1.0007e-07
1.13844e-07 3.99971e-07 1.00113e-07
1.34854e-07 4.19083e-07 1.04793e-07
1.75688e-07 4.41025e-07 1.10527e-07
2.15642e-07 4.15901e-07 1.04945e-07
2.35586e-07 3.94044e-07 9.95399e-08
2.5589e-07 3.80473e-07 9.96446e-08
2.82779e-07 3.7178e-07 1.04541e-07
3.22288e-07 3.46359e-07 1.10611e-07
3.20198e-07 2.99289e-07 1.04652e-07
3.10338e-07 2.71959e-07 1.00294e-07
3.08431e-07 2.48203e-07 1.00105e-07
3.13784e-07 2.22067e-07 1.05563e-07
3.11461e-07 1.80339e-07 1.11834e-07
1.9824e-07 1.11367e-07 1.04775e-07
2.23855e-07 1.24943e-07 9.83713e-08
2.47933e-07 1.37851e-07 9.84543e-08
2.74366e-07 1.52008e-07 1.0484e-07
1.56746e-07 9.6724e-08 1.11645e-07
1.67111e-07 2.74672e-07 4.53547e-08
1.54198e-07 2.64263e-07 4.4843e-08
1.63869e-07 2.53e-07 4.4253e-08
1.62483e-07 8.23377e-08 1.11679e-07
1.65935e-07 9.01865e-08 1.12017e-07
3.18082e-07 1.6853e-07 1.1172e-07
3.5475e-07 1.47903e-07 1.05539e-07
3.7418e-07 1.28927e-07 1.0043e-07
3.95007e-07 1.17363e-07 9.99425e-08
4.22809e-07 1.10575e-07 1.04684e-07
4.63742e-07 8.68946e-08 1.10719e-07
4.63847e-07 4.01699e-08 1.0474e-07
4.56501e-07 1.20758e-08 9.96287e-08
4.56167e-07 -1.25533e-08 1.0006e-07
4.63859e-07 -4.02807e-08 1.04587e-07
4.63636e-07 -8.70649e-08 1.10641e-07
4.22648e-07 -1.10778e-07 1.04673e-07
3.94819e-07 -1.17514e-07 9.99247e-08
3.73969e-07 -1.28828e-07 1.00042e-07
3.54578e-07 -1.47927e-07 1.05743e-07
3.17554e-07 -1.68873e-07 1.11521e-07
1.98045e-07 -1.11264e-07 1.04699e-07
2.2371e-07 -1.24957e-07 9.86972e-08
2.4783e-07 -1.37873e-07 9.8747e-08
2.74279e-07 -1.52031e-07 1.04697e-07
1.65782e-07 -9.03838e-08 1.12278e-07
1.62277e-07 -8.23433e-08 1.11713e-07
3.09822e-07 9.89919e-09 4.495e-08
2.97455e-07 6.96261e-10 4.52761e-08
3.08747e-07 -1.04697e-08 4.50169e-08
1.56792e-07 -9.66579e-08 1.11631e-07
3.11411e-07 -1.80308e-07 1.1187e-07
3.13774e-07 -2.22135e-07 1.05411e-07
3.08047e-07 -2.48015e-07 1.00566e-07
3.10591e-07 -2.71672e-07 9.98805e-08
3.20063e-07 -2.99427e-07 1.04848e-07
3.22209e-07 -3.46467e-07 1.10745e-07
2.82631e-07 -3.7174e-07 1.04649e-07
2.55714e-07 -3.80479e-07 9.96922e-08
2.3542e-07 -3.94003e-07 9.94689e-08
2.15513e-07 -4.15868e-07 1.04908e-07
1.75569e-07 -4.41003e-07 1.10515e-07
1.34717e-07 -4.19071e-07 1.04801e-07
1.13698e-07 -3.99917e-07 1.00129e-07
9.29487e-08 -3.88743e-07 1.00076e-07
6.66496e-08 -3.83865e-07 1.05336e-07
2.97163e-08 -3.72159e-07 1.12e-07
2.76725e-08 -3.6121e-07 1.1182e-07
9.19312e-09 -2.31386e-07 1.04971e-07
1.24353e-08 -2.60651e-07 9.88522e-08
1.56411e-08 -2.87889e-07 9.91109e-08
1.90501e-08 -3.17738e-07 1.0495e-07
1.25827e-08 -1.89307e-07 1.11853e-07
1.51305e-08 -1.80884e-07 1.12106e-07
1.64617e-07 -2.52446e-07 4.5179e-08
1.54086e-07 -2.63656e-07 4.48405e-08
1.66141e-07 -2.74174e-07 4.44383e-08
-1.35854e-09 -1.88698e-07 1.12306e-07
1.6824e-08 -3.64181e-07 1.1222e-07
-1.48193e-08 -3.90118e-07 1.0591e-07
-3.71568e-08 -4.01255e-07 1.00713e-07
-5.37589e-08 -4.18393e-07 1.00353e-07
-7.05408e-08 -4.44474e-07 1.05559e-07
-1.08222e-07 -4.74981e-07 1.11006e-07
-1.50876e-07 -4.58591e-07 1.05308e-07
-1.74583e-07 -4.44233e-07 1.00638e-07
-1.98678e-07 -4.37899e-07 1.00473e-07
-2.29477e-07 -4.37483e-07 1.05412e-07
-2.72738e-07 -4.29586e-07 1.11642e-07
-2.78628e-07 -4.18219e-07 1.11379e-07
-2.84365e-07 -3.74744e-07 1.0622e-07
-2.84363e-07 -3.47718e-07 1.02498e-07
-2.92605e-07 -3.24266e-07 1.03869e-07
-3.09742e-07 -2.98929e-07 1.10384e-07
-3.2619e-07 -2.56087e-07 1.19703e-07
-3.27467e-07 -2.46017e-07 1.22808e-07
-2.02142e-07 -1.416e-07 1.18443e-07
-2.33018e-07 -1.65397e-07 1.15616e-07
-2.6335e-07 -1.88759e-07 1.15766e-07
-2.95059e-07 -2.13374e-07 1.1935e-07
-1.58471e-07 -1.18105e-07 1.18836e-07
-1.4005e-07 -2.83586e-07 4.66114e-08
-1.49951e-07 -2.99317e-07 4.66227e-08
-1.36641e-07 -3.062e-07 4.5287e-08
-1.65959e-07 -1.04992e-07 1.22369e-07
-3.43229e-07 -2.42707e-07 1.26074e-07
-4.02444e-07 -2.32389e-07 1.2943e-07
-4.49012e-07 -2.11603e-07 1.30596e-07
-4.94449e-07 -1.89769e-07 1.31919e-07
-5.39429e-07 -1.67265e-07 1.33549e-07
-5.83713e-07 -1.41166e-07 1.34897e-07
-5.87386e-07 -1.29655e-07 1.3489e-07
-5.96774e-07 -7.5397e-08 1.34256e-07
-5.97263e-07 -2.51333e-08 1.33709e-07
-5.97262e-07 2.50688e-08 1.33706e-07
-5.9676e-07 7.53352e-08 1.34257e-07
-5.87358e-07 1.29598e-07 1.34891e-07
-5.8368e-07 1.4111e-07 1.34898e-07
-5.39379e-07 1.67197e-07 1.33551e-07
-4.94386e-07 1.89667e-07 1.31908e-07
-4.48984e-07 2.11522e-07 1.30541e-07
-4.02437e-07 2.32409e-07 1.29455e-07
-3.42791e-07 2.42549e-07 1.25966e-07
-2.02012e-07 1.41444e-07 1.18443e-07
-2.32906e-07 1.65214e-07 1.15641e-07
-2.63252e-07 1.88566e-07 1.15898e-07
-2.94962e-07 2.13247e-07 1.19348e-07
-1.65834e-07 1.04882e-07 1.22359e-07
-3.7143e-07 2.12954e-08 1.284e-07
-3.92816e-07 -2.21453e-11 1.29515e-07
-3.71403e-07 -2.13794e-08 1.2845e-07
-1.58316e-07 1.17996e-07 1.18816e-07
-3.2774e-07 2.45893e-07 1.22996e-07
-3.26343e-07 2.55987e-07 1.19807e-07
-3.09796e-07 2.9883e-07 1.10438e-07
-2.92589e-07 3.24257e-07 1.03884e-07
-2.84254e-07 3.47696e-07 1.02531e-07
-2.84213e-07 3.74642e-07 1.06222e-07
-2.78452e-07 4.18095e-07 1.11385e-07
-2.72563e-07 4.29461e-07 1.11651e-07
-2.29319e-07 4.37316e-07 1.05438e-07
-1.98523e-07 4.37728e-07 1.00468e-07
-1.74515e-07 4.43734e-07 1.00256e-07
-1.50806e-07 4.58383e-07 1.05559e-07
-1.08034e-07 4.74944e-07 1.11036e-07
-7.04906e-08 4.44565e-07 1.05367e-07
-5.36991e-08 4.18827e-07 1.00781e-07
-3.7023e-08 4.01408e-07 1.00777e-07
-1.46516e-08 3.90202e-07 1.05953e-07
1.69486e-08 3.64258e-07 1.12285e-07
-1.40808e-09 1.88919e-07 1.12149e-07
-1.35353e-07 3.06569e-07 4.60183e-08
-1.49842e-07 2.97819e-07 4.66403e-08
-1.41063e-07 2.84032e-07 4.58673e-08
5.64736e-09 1.74748e-07 -1.11805e-07
-1.15152e-07 1.27876e-07 -1.08253e-07
-8.79588e-08 1.39466e-07 -1.00522e-07
-6.28154e-08 1.50442e-07 -9.96214e-08
-3.62295e-08 1.62453e-07 -1.05392e-07
-1.48612e-07 1.08951e-07 -1.18028e-07
-1.50933e-07 1.00161e-07 -1.19264e-07
-1.57625e-07 -5.53142e-08 -1.18002e-07
-1.57036e-07 -1.80275e-08 -1.14995e-07
-1.56959e-07 1.7953e-08 -1.14886e-07
-1.57524e-07 5.52237e-08 -1.18036e-07
-1.51097e-07 -1.00259e-07 -1.1928e-07
-1.48778e-07 -1.09051e-07 -1.18048e-07
-3.61788e-08 -1.6247e-07 -1.05357e-07
-6.29198e-08 -1.50392e-07 -9.99555e-08
-8.8115e-08 -1.39499e-07 -1.0058e-07
-1.15317e-07 -1.27956e-07 -1.08285e-07
5.48332e-09 -1.74645e-07 -1.11825e-07
1.16205e-07 -1.12138e-07 -1.04622e-07
9.18759e-08 -1.26963e-07 -9.81871e-08
6.94872e-08 -1.41381e-07 -9.82035e-08
4.55049e-08 -1.57085e-07 -1.04708e-07
1.48346e-07 -8.36353e-08 -1.11796e-07
1.55265e-07 4.15136e-08 -1.04538e-07
1.55023e-07 1.31227e-08 -9.82955e-08
1.54919e-07 -1.31058e-08 -9.85344e-08
1.55239e-07 -4.14512e-08 -1.04444e-07
1.48548e-07 8.3833e-08 -1.11947e-07
4.55128e-08 1.5729e-07 -1.04618e-07
6.95703e-08 1.41535e-07 -9.85095e-08
9.20312e-08 1.27163e-07 -9.85059e-08
1.16434e-07 1.12149e-07 -1.04572e-07
0 0 0
0 0 0
0 0 0
1.51469e-08 1.80743e-07 -1.12364e-07
1.25418e-08 1.89341e-07 -1.11883e-07
9.28074e-09 2.31461e-07 -1.04877e-07
1.24262e-08 2.60651e-07 -9.90801e-08
1.58241e-08 2.87915e-07 -9.88765e-08
1.91051e-08 3.17802e-07 -1.05036e-07
2.78322e-08 3.61287e-07 -1.11859e-07
2.98572e-08 3.72227e-07 -1.12029e-07
6.67656e-08 3.83941e-07 -1.05345e-07
9.30727e-08 3.88826e-07 -1.0007e-07
1.13844e-07 3.99971e-07 -1.00113e-07
1.34854e-07 4.19083e-07 -1.04793e-07
1.75688e-07 4.41025e-07 -1.10527e-07
2.15642e-07 4.15901e-07 -1.04945e-07
2.35586e-07 3.94044e-07 -9.95399e-08
2.5589e-07 3.80473e-07 -9.96446e-08
2.82779e-07 3.7178e-07 -1.04541e-07
3.22288e-07 3.46359e-07 -1.10611e-07
3.20198e-07 2.99289e-07 -1.04652e-07
3.10338e-07 2.71959e-07 -1.00294e-07
3.08431e-07 2.48203e-07 -1.00105e-07
3.13784e-07 2.22067e-07 -1.05563e-07
3.11461e-07 1.80339e-07 -1.11834e-07
1.9824e-07 1.11367e-07 -1.04775e-07
2.23855e-07 1.24943e-07 -9.83713e-08
2.47933e-07 1.37851e-07 -9.84543e-08
2.74366e-07 1.52008e-07 -1.0484e-07
1.56746e-07 9.6724e-08 -1.11645e-07
1.67111e-07 2.74672e-07 -4.53547e-08
1.54198e-07 2.64263e-07 -4.4843e-08
1.63869e-07 2.53e-07 -4.4253e-08
1.62483e-07 8.23377e-08 -1.11679e-07
1.65935e-07 9.01865e-08 -1.12017e-07
3.18082e-07 1.6853e-07 -1.1172e-07
3.5475e-07 1.47903e-07 -1.05539e-07
3.7418e-07 1.28927e-07 -1.0043e-07
3.95007e-07 1.17363e-07 -9.99425e-08
4.22809e-07 1.10575e-07 -1.04684e-07
4.63742e-07 8.68946e-08 -1.10719e-07
4.63847e-07 4.01699e-08 -1.0474e-07
4.56501e-07 1.20758e-08 -9.96287e-08
4.56167e-07 -1.25533e-08 -1.0006e-07
4.63859e-07 -4.02807e-08 -1.04587e-07
4.63636e-07 -8.70649e-08 -1.10641e-07
4.22648e-07 -1.10778e-07 -1.04673e-07
3.94819e-07 -1.17514e-07 -9.99247e-08
3.73969e-07 -1.28828e-07 -1.00042e-07
3.54578e-07 -1.47927e-07 -1.05743e-07
3.17554e-07 -1.68873e-07 -1.11521e-07
1.98045e-07 -1.11264e-07 -1.04699e-07
2.2371e-07 -1.24957e-07 -9.86972e-08
2.4783e-07 -1.37873e-07 -9.8747e-08
2.74279e-07 -1.52031e-07 -1.04697e-07
1.65782e-07 -9.03838e-08 -1.12278e-07
1.62277e-07 -8.23433e-08 -1.11713e-07
3.09822e-07 9.89919e-09 -4.495e-08
2.97455e-07 6.96261e-10 -4.52761e-08
3.08747e-07 -1.04697e-08 -4.50169e-08
1.56792e-07 -9.66579e-08 -1.11631e-07
3.11411e-07 -1.80308e-07 -1.1187e-07
3.13774e-07 -2.22135e-07 -1.05411e-07
3.08047e-07 -2.48015e-07 -1.00566e-07
3.10591e-07 -2.71672e-07 -9.98805e-08
3.20063e-07 -2.99427e-07 -1.04848e-07
3.22209e-07 -3.46467e-07 -1.10745e-07
2.82631e-07 -3.7174e-07 -1.04649e-07
2.55714e-07 -3.80479e-07 -9.96922e-08
2.3542e-07 -3.94003e-07 -9.94689e-08
2.15513e-07 -4.15868e-07 -1.04908e-07
1.75569e-07 -4.41003e-07 -1.10515e-07
1.34717e-07 -4.19071e-07 -1.04801e-07
1.13698e-07 -3.99917e-07 -1.00129e-07
9.29487e-08 -3.88743e-07 -1.00076e-07
6.66496e-08 -3.83865e-07 -1.05336e-07
2.97163e-08 -3.72159e-07 -1.12e-07
2.76725e-08 -3.6121e-07 -1.1182e-07
9.19312e-09 -2.31386e-07 -1.04971e-07
1.24353e-08 -2.60651e-07 -9.88522e-08
1.56411e-08 -2.87889e-07 -9.91109e-08
1.90501e-08 -3.17738e-07 -1.0495e-07
1.25827e-08 -1.89307e-07 -1.11853e-07
1.51305e-08 -1.80884e-07 -1.12106e-07
1.64617e-07 -2.52446e-07 -4.5179e-08
1.54086e-07 -2.63656e-07 -4.48405e-08
1.66141e-07 -2.74174e-07 -4.44383e-08
-1.35854e-09 -1.88698e-07 -1.12306e-07
1.6824e-08 -3.64181e-07 -1.1222e-07
-1.48193e-08 -3.90118e-07 -1.0591e-07
-3.71568e-08 -4.01255e-07 -1.00713e-07
-5.37589e-08 -4.18393e-07 -1.00353e-07
-7.05408e-08 -4.44474e-07 -1.05559e-07
-1.08222e-07 -4.74981e-07 -1.11006e-07
-1.50876e-07 -4.58591e-07 -1.05308e-07
-1.74583e-07 -4.44233e-07 -1.00638e-07
-1.98678e-07 -4.37899e-07 -1.00473e-07
-2.29477e-07 -4.37483e-07 -1.05412e-07
-2.72738e-07 -4.29586e-07 -1.11642e-07
-2.78628e-07 -4.18219e-07 -1.11379e-07
-2.84365e-07 -3.74744e-07 -1.0622e-07
-2.84363e-07 -3.47718e-07 -1.02498e-07
-2.92605e-07 -3.24266e-07 -1.03869e-07
-3.09742e-07 -2.98929e-07 -1.10384e-07
-3.2619e-07 -2.56087e-07 -1.19703e-07
-3.27467e-07 -2.46017e-07 -1.22808e-07
-2.02142e-07 -1.416e-07 -1.18443e-07
-2.33018e-07 -1.65397e-07 -1.15616e-07
-2.6335e-07 -1.88759e-07 -1.15766e-07
-2.95059e-07 -2.13374e-07 -1.1935e-07
-1.58471e-07 -1.18105e-07 -1.18836e-07
-1.4005e-07 -2.83586e-07 -4.66114e-08
-1.49951e-07 -2.99317e-07 -4.66227e-08
-1.36641e-07 -3.062e-07 -4.5287e-08
-1.65959e-07 -1.04992e-07 -1.22369e-07
-3.43229e-07 -2.42707e-07 -1.26074e-07
-4.02444e-07 -2.32389e-07 -1.2943e-07
-4.49012e-07 -2.11603e-07 -1.30596e-07
-4.94449e-07 -1.89769e-07 -1.31919e-07
-5.39429e-07 -1.67265e-07 -1.33549e-07
-5.83713e-07 -1.41166e-07 -1.34897e-07
-5.87386e-07 -1.29655e-07 -1.3489e-07
-5.96774e-07 -7.5397e-08 -1.34256e-07
-5.97263e-07 -2.51333e-08 -1.33709e-07
-5.97262e-07 2.50688e-08 -1.33706e-07
-5.9676e-07 7.53352e-08 -1.34257e-07
-5.87358e-07 1.29598e-07 -1.34891e-07
-5.8368e-07 1.4111e-07 -1.34898e-07
-5.39379e-07 1.67197e-07 -1.33551e-07
-4.94386e-07 1.89667e-07 -1.31908e-07
-4.48984e-07 2.11522e-07 -1.30541e-07
-4.02437e-07 2.32409e-07 -1.29455e-07
-3.42791e-07 2.42549e-07 -1.25966e-07
-2.02012e-07 1.41444e-07 -1.18443e-07
-2.32906e-07 1.65214e-07 -1.15641e-07
-2.63252e-07 1.88566e-07 -1.15898e-07
-2.94962e-07 2.13247e-07 -1.19348e-07
-1.65834e-07 1.04882e-07 -1.22359e-07