# vtk DataFile Version 3.0
vtk output at time 0.8
ASCII
DATASET UNSTRUCTURED_GRID
POINTS 2586 float
-1.84029e-05 0.000489375 0 1.84029e-05 0.000489375 0 -0.000414597 0.000260625 0 
-0.00041175 0.00025 0 -0.000433 0.00022875 0 -0.000433 -0.00022875 0 
-0.00041175 -0.00025 0 -0.000414597 -0.000260625 0 -1.84029e-05 -0.000489375 0 
1.84029e-05 -0.000489375 0 0.000414597 -0.000260625 0 0.000433 -0.00022875 0 
0.000433 0.00022875 0 0.000414597 0.000260625 0 4.25e-05 0 0 
2.125e-05 0.0005 0 5.90898e-17 0.00052125 0 5.90919e-17 0.00097875 0 
2.125e-05 0.001 0 1.84029e-05 0.00101063 0 0.000414597 0.00123937 0 
0.000451403 0.00123937 0 0.000847597 0.00101063 0 0.000866 0.00097875 0 
0.000866 0.00052125 0 0.000847597 0.000489375 0 0.000451403 0.000260625 0 
0.0004755 0.00075 0 0.00045425 0.00025 0 0.000884403 0.000489375 0 
0.0012806 0.000260625 0 0.001299 0.00022875 0 0.001299 -0.00022875 0 
0.0012806 -0.000260625 0 0.000884403 -0.000489375 0 0.000847597 -0.000489375 0 
0.000451403 -0.000260625 0 0.00045425 -0.00025 0 0.0009085 0 0 
0.000866 -0.00052125 0 0.000866 -0.00097875 0 0.000847597 -0.00101063 0 
0.000451403 -0.00123937 0 0.000414597 -0.00123937 0 1.84029e-05 -0.00101063 0 
2.125e-05 -0.001 0 5.90898e-17 -0.00097875 0 5.90919e-17 -0.00052125 0 
2.125e-05 -0.0005 0 0.0004755 -0.00075 0 -1.84029e-05 -0.00101063 0 
-0.000414597 -0.00123937 0 -0.000451403 -0.00123937 0 -0.000847597 -0.00101063 0 
-0.00084475 -0.001 0 -0.000866 -0.00097875 0 -0.000866 -0.00052125 0 
-0.00084475 -0.0005 0 -0.000847597 -0.000489375 0 -0.000451403 -0.000260625 0 
-0.0003905 -0.00075 0 -0.000884403 -0.000489375 0 -0.0012806 -0.000260625 0 
-0.00127775 -0.00025 0 -0.001299 -0.00022875 0 -0.001299 0.00022875 0 
-0.00127775 0.00025 0 -0.0012806 0.000260625 0 -0.000884403 0.000489375 0 
-0.000847597 0.000489375 0 -0.000451403 0.000260625 0 -0.0008235 0 0 
-0.00084475 0.0005 0 -0.000866 0.00052125 0 -0.000866 0.00097875 0 
-0.00084475 0.001 0 -0.000847597 0.00101063 0 -0.000451403 0.00123937 0 
-0.000414597 0.00123937 0 -1.84029e-05 0.00101063 0 -0.0003905 0.00075 0 
-1.84029e-05 0.000489375 -0.0005 1.84029e-05 0.000489375 -0.0005 -0.000414597 0.000260625 -0.0005 
-0.00041175 0.00025 -0.0005 -0.000433 0.00022875 -0.0005 -0.000433 -0.00022875 -0.0005 
-0.00041175 -0.00025 -0.0005 -0.000414597 -0.000260625 -0.0005 -1.84029e-05 -0.000489375 -0.0005 
1.84029e-05 -0.000489375 -0.0005 0.000414597 -0.000260625 -0.0005 0.000433 -0.00022875 -0.0005 
0.000433 0.00022875 -0.0005 0.000414597 0.000260625 -0.0005 4.25e-05 0 -0.0005 
2.125e-05 0.0005 -0.0005 5.90898e-17 0.00052125 -0.0005 5.90919e-17 0.00097875 -0.0005 
2.125e-05 0.001 -0.0005 1.84029e-05 0.00101063 -0.0005 0.000414597 0.00123937 -0.0005 
0.000451403 0.00123937 -0.0005 0.000847597 0.00101063 -0.0005 0.000866 0.00097875 -0.0005 
0.000866 0.00052125 -0.0005 0.000847597 0.000489375 -0.0005 0.000451403 0.000260625 -0.0005 
0.0004755 0.00075 -0.0005 0.00045425 0.00025 -0.0005 0.000884403 0.000489375 -0.0005 
0.0012806 0.000260625 -0.0005 0.001299 0.00022875 -0.0005 0.001299 -0.00022875 -0.0005 
0.0012806 -0.000260625 -0.0005 0.000884403 -0.000489375 -0.0005 0.000847597 -0.000489375 -0.0005 
0.000451403 -0.000260625 -0.0005 0.00045425 -0.00025 -0.0005 0.0009085 0 -0.0005 
0.000866 -0.00052125 -0.0005 0.000866 -0.00097875 -0.0005 0.000847597 -0.00101063 -0.0005 
0.000451403 -0.00123937 -0.0005 0.000414597 -0.00123937 -0.0005 1.84029e-05 -0.00101063 -0.0005 
2.125e-05 -0.001 -0.0005 5.90898e-17 -0.00097875 -0.0005 5.90919e-17 -0.00052125 -0.0005 
2.125e-05 -0.0005 -0.0005 0.0004755 -0.00075 -0.0005 -1.84029e-05 -0.00101063 -0.0005 
-0.000414597 -0.00123937 -0.0005 -0.000451403 -0.00123937 -0.0005 -0.000847597 -0.00101063 -0.0005 
-0.00084475 -0.001 -0.0005 -0.000866 -0.00097875 -0.0005 -0.000866 -0.00052125 -0.0005 
-0.00084475 -0.0005 -0.0005 -0.000847597 -0.000489375 -0.0005 -0.000451403 -0.000260625 -0.0005 
-0.0003905 -0.00075 -0.0005 -0.000884403 -0.000489375 -0.0005 -0.0012806 -0.000260625 -0.0005 
-0.00127775 -0.00025 -0.0005 -0.001299 -0.00022875 -0.0005 -0.001299 0.00022875 -0.0005 
-0.00127775 0.00025 -0.0005 -0.0012806 0.000260625 -0.0005 -0.000884403 0.000489375 -0.0005 
-0.000847597 0.000489375 -0.0005 -0.000451403 0.000260625 -0.0005 -0.0008235 0 -0.0005 
-0.00084475 0.0005 -0.0005 -0.000866 0.00052125 -0.0005 -0.000866 0.00097875 -0.0005 
-0.00084475 0.001 -0.0005 -0.000847597 0.00101063 -0.0005 -0.000451403 0.00123937 -0.0005 
-0.000414597 0.00123937 -0.0005 -1.84029e-05 0.00101063 -0.0005 -0.0003905 0.00075 -0.0005 
-9.82724e-20 0.00047875 0 -0.000335358 0.000306375 0 -0.000256119 0.000352125 0 
-0.000176881 0.000397875 0 -9.76417e-05 0.000443625 0 -0.000412474 0.0002555 0 
-0.000417974 0.000234974 0 -0.000433 -0.00013725 0 -0.000433 -4.575e-05 0 
-0.000433 4.575e-05 0 -0.000433 0.00013725 0 -0.000417974 -0.000234974 0 
-0.000412474 -0.0002555 0 -9.76417e-05 -0.000443625 0 -0.000176881 -0.000397875 0 
-0.000256119 -0.000352125 0 -0.000335358 -0.000306375 0 -1.07223e-19 -0.00047875 0 
0.000335358 -0.000306375 0 0.000256119 -0.000352125 0 0.000176881 -0.000397875 0 
9.76417e-05 -0.000443625 0 0.000414597 -0.000239375 0 0.000433 0.00013725 0 
0.000433 4.575e-05 0 0.000433 -4.575e-05 0 0.000433 -0.00013725 0 
0.000414597 0.000239375 0 9.76417e-05 0.000443625 0 0.000176881 0.000397875 0 
0.000256119 0.000352125 0 0.000335358 0.000306375 0 -1.29514e-19 4.25e-05 0 
-4.25e-05 -3.53397e-19 0 4.07417e-19 -4.25e-05 0 2.05259e-05 0.0004945 0 
1.5026e-05 0.000515026 0 0 0.00061275 0 0 0.00070425 0 
0 0.00079575 0 0 0.00088725 0 1.5026e-05 0.000984974 0 
2.05259e-05 0.0010055 0 9.76417e-05 0.00105638 0 0.000176881 0.00110213 0 
0.000256119 0.00114787 0 0.000335358 0.00119362 0 0.000433 0.00122875 0 
0.000530642 0.00119362 0 0.000609881 0.00114787 0 0.000689119 0.00110213 0 
0.000768358 0.00105638 0 0.000847597 0.000989375 0 0.000866 0.00088725 0 
0.000866 0.00079575 0 0.000866 0.00070425 0 0.000866 0.00061275 0 
0.000847597 0.000510625 0 0.000530642 0.000306375 0 0.000609881 0.000352125 0 
0.000689119 0.000397875 0 0.000768358 0.000443625 0 0.000433 0.00027125 0 
0.000433 0.0007925 0 0.0003905 0.00075 0 0.000433 0.0007075 0 
0.000448026 0.000234974 0 0.000453526 0.0002555 0 0.000866 0.00047875 0 
0.000963642 0.000443625 0 0.00104288 0.000397875 0 0.00112212 0.000352125 0 
0.00120136 0.000306375 0 0.0012806 0.000239375 0 0.001299 0.00013725 0 
0.001299 4.575e-05 0 0.001299 -4.575e-05 0 0.001299 -0.00013725 0 
0.0012806 -0.000239375 0 0.00120136 -0.000306375 0 0.00112212 -0.000352125 0 
0.00104288 -0.000397875 0 0.000963642 -0.000443625 0 0.000866 -0.00047875 0 
0.000530642 -0.000306375 0 0.000609881 -0.000352125 0 0.000689119 -0.000397875 0 
0.000768358 -0.000443625 0 0.000453526 -0.0002555 0 0.000448026 -0.000234974 0 
0.000866 4.25e-05 0 0.0008235 -3.53397e-19 0 0.000866 -4.25e-05 0 
0.000433 -0.00027125 0 0.000847597 -0.000510625 0 0.000866 -0.00061275 0 
0.000866 -0.00070425 0 0.000866 -0.00079575 0 0.000866 -0.00088725 0 
0.000847597 -0.000989375 0 0.000768358 -0.00105638 0 0.000689119 -0.00110213 0 
0.000609881 -0.00114787 0 0.000530642 -0.00119362 0 0.000433 -0.00122875 0 
0.000335358 -0.00119362 0 0.000256119 -0.00114787 0 0.000176881 -0.00110213 0 
9.76417e-05 -0.00105638 0 2.05259e-05 -0.0010055 0 1.5026e-05 -0.000984974 0 
0 -0.00061275 0 0 -0.00070425 0 0 -0.00079575 0 
0 -0.00088725 0 1.5026e-05 -0.000515026 0 2.05259e-05 -0.0004945 0 
0.000433 -0.0007075 0 0.0003905 -0.00075 0 0.000433 -0.0007925 0 
-1.84031e-05 -0.000510625 0 -1.84031e-05 -0.000989375 0 -9.76417e-05 -0.00105638 0 
-0.000176881 -0.00110213 0 -0.000256119 -0.00114787 0 -0.000335358 -0.00119362 0 
-0.000433 -0.00122875 0 -0.000530642 -0.00119362 0 -0.000609881 -0.00114787 0 
-0.000689119 -0.00110213 0 -0.000768358 -0.00105638 0 -0.000845474 -0.0010055 0 
-0.000850974 -0.000984974 0 -0.000866 -0.00088725 0 -0.000866 -0.00079575 0 
-0.000866 -0.00070425 0 -0.000866 -0.00061275 0 -0.000850974 -0.000515026 0 
-0.000845474 -0.0004945 0 -0.000530642 -0.000306375 0 -0.000609881 -0.000352125 0 
-0.000689119 -0.000397875 0 -0.000768358 -0.000443625 0 -0.000433 -0.00027125 0 
-0.000433 -0.0007075 0 -0.0004755 -0.00075 0 -0.000433 -0.0007925 0 
-0.000451403 -0.000239375 0 -0.000866 -0.00047875 0 -0.000963642 -0.000443625 0 
-0.00104288 -0.000397875 0 -0.00112212 -0.000352125 0 -0.00120136 -0.000306375 0 
-0.00127847 -0.0002555 0 -0.00128397 -0.000234974 0 -0.001299 -0.00013725 0 
-0.001299 -4.575e-05 0 -0.001299 4.575e-05 0 -0.001299 0.00013725 0 
-0.00128397 0.000234974 0 -0.00127847 0.0002555 0 -0.00120136 0.000306375 0 
-0.00112212 0.000352125 0 -0.00104288 0.000397875 0 -0.000963642 0.000443625 0 
-0.000866 0.00047875 0 -0.000530642 0.000306375 0 -0.000609881 0.000352125 0 
-0.000689119 0.000397875 0 -0.000768358 0.000443625 0 -0.000451403 0.000239375 0 
-0.000866 4.25e-05 0 -0.0009085 -3.53397e-19 0 -0.000866 -4.25e-05 0 
-0.000433 0.00027125 0 -0.000845474 0.0004945 0 -0.000850974 0.000515026 0 
-0.000866 0.00061275 0 -0.000866 0.00070425 0 -0.000866 0.00079575 0 
-0.000866 0.00088725 0 -0.000850974 0.000984974 0 -0.000845474 0.0010055 0 
-0.000768358 0.00105638 0 -0.000689119 0.00110213 0 -0.000609881 0.00114787 0 
-0.000530642 0.00119362 0 -0.000433 0.00122875 0 -0.000335358 0.00119362 0 
-0.000256119 0.00114787 0 -0.000176881 0.00110213 0 -9.76417e-05 0.00105638 0 
-1.84031e-05 0.000989375 0 -1.84031e-05 0.000510625 0 -0.000433 0.0007925 0 
-0.0004755 0.00075 0 -0.000433 0.0007075 0 -9.82724e-20 0.00047875 -0.0005 
-0.000335358 0.000306375 -0.0005 -0.000256119 0.000352125 -0.0005 -0.000176881 0.000397875 -0.0005 
-9.76417e-05 0.000443625 -0.0005 -0.000412474 0.0002555 -0.0005 -0.000417974 0.000234974 -0.0005 
-0.000433 -0.00013725 -0.0005 -0.000433 -4.575e-05 -0.0005 -0.000433 4.575e-05 -0.0005 
-0.000433 0.00013725 -0.0005 -0.000417974 -0.000234974 -0.0005 -0.000412474 -0.0002555 -0.0005 
[...]
POINT_DATA 2586
VECTORS displacement float
-2.63309e-09 2.05217e-07 1.28306e-07
1.59267e-08 2.03851e-07 1.28426e-07
-1.71225e-07 1.27624e-07 1.34841e-07
-1.69596e-07 1.21633e-07 1.34904e-07
-1.79784e-07 1.1199e-07 1.38806e-07
-1.7997e-07 -1.12099e-07 1.38821e-07
-1.69785e-07 -1.21747e-07 1.34927e-07
-1.71413e-07 -1.27739e-07 1.34866e-07
-2.64832e-09 -2.04812e-07 1.28689e-07
1.5878e-08 -2.04052e-07 1.28086e-07
1.69545e-07 -1.05956e-07 1.27964e-07
1.78778e-07 -9.00739e-08 1.28293e-07
1.79009e-07 9.01861e-08 1.28351e-07
1.69717e-07 1.06329e-07 1.28344e-07
0 0 0
1.74239e-08 2.09113e-07 1.28121e-07
7.95147e-09 2.21078e-07 1.28595e-07
2.65004e-08 4.08774e-07 1.28698e-07
3.44363e-08 4.21908e-07 1.2783e-07
3.328e-08 4.2898e-07 1.28015e-07
1.89203e-07 5.09959e-07 1.27154e-07
2.13866e-07 5.09233e-07 1.26565e-07
3.67392e-07 4.09634e-07 1.26668e-07
3.78933e-07 3.87933e-07 1.26836e-07
3.67601e-07 2.12065e-07 1.28223e-07
3.53676e-07 1.95937e-07 1.28067e-07
1.88463e-07 1.05805e-07 1.27983e-07
1.99959e-07 3.00179e-07 5.10975e-08
1.89538e-07 1.00764e-07 1.27784e-07
3.74867e-07 1.99259e-07 1.28487e-07
5.28577e-07 1.1301e-07 1.26784e-07
5.40916e-07 9.1797e-08 1.26949e-07
5.40779e-07 -9.19824e-08 1.26858e-07
5.28436e-07 -1.13231e-07 1.2671e-07
3.74727e-07 -1.99687e-07 1.277e-07
3.5366e-07 -1.95838e-07 1.28279e-07
1.8832e-07 -1.06072e-07 1.28326e-07
1.89348e-07 -1.00937e-07 1.28012e-07
3.65537e-07 7.93159e-11 5.09538e-08
3.67531e-07 -2.12073e-07 1.28229e-07
3.78872e-07 -3.88075e-07 1.26988e-07
3.67292e-07 -4.09741e-07 1.26806e-07
2.13732e-07 -5.09205e-07 1.26548e-07
1.89067e-07 -5.09938e-07 1.27142e-07
3.31204e-08 -4.28903e-07 1.27982e-07
3.42718e-08 -4.21829e-07 1.27795e-07
2.62938e-08 -4.08674e-07 1.28642e-07
8.00305e-09 -2.20935e-07 1.28658e-07
1.74204e-08 -2.09224e-07 1.27897e-07
1.99747e-07 -3.01675e-07 5.11019e-08
2.10439e-08 -4.29562e-07 1.2849e-07
-1.10015e-07 -5.46882e-07 1.27115e-07
-1.34624e-07 -5.4997e-07 1.27688e-07
-3.1214e-07 -4.94735e-07 1.27577e-07
-3.12325e-07 -4.87454e-07 1.27385e-07
-3.2797e-07 -4.74036e-07 1.27987e-07
-3.80462e-07 -3.00211e-07 1.36744e-07
-3.72566e-07 -2.83958e-07 1.39288e-07
-3.77008e-07 -2.78923e-07 1.411e-07
-1.90752e-07 -1.3175e-07 1.38837e-07
-1.4636e-07 -3.33539e-07 5.15456e-08
-4.03435e-07 -2.87015e-07 1.45561e-07
-6.68495e-07 -1.64714e-07 1.54205e-07
-6.67045e-07 -1.5784e-07 1.54185e-07
-6.81205e-07 -1.44358e-07 1.54325e-07
-6.81174e-07 1.44295e-07 1.54326e-07
-6.67009e-07 1.57775e-07 1.54187e-07
-6.68456e-07 1.6465e-07 1.54207e-07
-4.02961e-07 2.86841e-07 1.45385e-07
-3.77342e-07 2.78792e-07 1.41337e-07
-1.90587e-07 1.31615e-07 1.38821e-07
-4.00922e-07 -4.51632e-11 1.45638e-07
-3.72831e-07 2.83829e-07 1.39472e-07
-3.80619e-07 3.00114e-07 1.36849e-07
-3.27765e-07 4.73898e-07 1.27993e-07
-3.12125e-07 4.8731e-07 1.27395e-07
-3.1194e-07 4.94593e-07 1.27587e-07
-1.3542e-07 5.49847e-07 1.27146e-07
-1.10815e-07 5.46921e-07 1.27725e-07
2.12097e-08 4.29638e-07 1.28558e-07
-1.46247e-07 3.33916e-07 5.15183e-08
-2.63309e-09 2.05217e-07 -1.28306e-07
1.59267e-08 2.03851e-07 -1.28426e-07
-1.71225e-07 1.27624e-07 -1.34841e-07
-1.69596e-07 1.21633e-07 -1.34904e-07
-1.79784e-07 1.1199e-07 -1.38806e-07
-1.7997e-07 -1.12099e-07 -1.38821e-07
-1.69785e-07 -1.21747e-07 -1.34927e-07
-1.71413e-07 -1.27739e-07 -1.34866e-07
-2.64832e-09 -2.04812e-07 -1.28689e-07
1.5878e-08 -2.04052e-07 -1.28086e-07
1.69545e-07 -1.05956e-07 -1.27964e-07
1.78778e-07 -9.00739e-08 -1.28293e-07
1.79009e-07 9.01861e-08 -1.28351e-07
1.69717e-07 1.06329e-07 -1.28344e-07
0 0 0
1.74239e-08 2.09113e-07 -1.28121e-07
7.95147e-09 2.21078e-07 -1.28595e-07
2.65004e-08 4.08774e-07 -1.28698e-07
3.44363e-08 4.21908e-07 -1.2783e-07
3.328e-08 4.2898e-07 -1.28015e-07
1.89203e-07 5.09959e-07 -1.27154e-07
2.13866e-07 5.09233e-07 -1.26565e-07
3.67392e-07 4.09634e-07 -1.26668e-07
3.78933e-07 3.87933e-07 -1.26836e-07
3.67601e-07 2.12065e-07 -1.28223e-07
3.53676e-07 1.95937e-07 -1.28067e-07
1.88463e-07 1.05805e-07 -1.27983e-07
1.99959e-07 3.00179e-07 -5.10975e-08
1.89538e-07 1.00764e-07 -1.27784e-07
3.74867e-07 1.99259e-07 -1.28487e-07
5.28577e-07 1.1301e-07 -1.26784e-07
5.40916e-07 9.1797e-08 -1.26949e-07
5.40779e-07 -9.19824e-08 -1.26858e-07
5.28436e-07 -1.13231e-07 -1.2671e-07
3.74727e-07 -1.99687e-07 -1.277e-07
3.5366e-07 -1.95838e-07 -1.28279e-07
1.8832e-07 -1.06072e-07 -1.28326e-07
1.89348e-07 -1.00937e-07 -1.28012e-07
3.65537e-07 7.93159e-11 -5.09538e-08
3.67531e-07 -2.12073e-07 -1.28229e-07
3.78872e-07 -3.88075e-07 -1.26988e-07
3.67292e-07 -4.09741e-07 -1.26806e-07
2.13732e-07 -5.09205e-07 -1.26548e-07
1.89067e-07 -5.09938e-07 -1.27142e-07
3.31204e-08 -4.28903e-07 -1.27982e-07
3.42718e-08 -4.21829e-07 -1.27795e-07
2.62938e-08 -4.08674e-07 -1.28642e-07
8.00305e-09 -2.20935e-07 -1.28658e-07
1.74204e-08 -2.09224e-07 -1.27897e-07
1.99747e-07 -3.01675e-07 -5.11019e-08
2.10439e-08 -4.29562e-07 -1.2849e-07
-1.10015e-07 -5.46882e-07 -1.27115e-07
-1.34624e-07 -5.4997e-07 -1.27688e-07
-3.1214e-07 -4.94735e-07 -1.27577e-07
-3.12325e-07 -4.87454e-07 -1.27385e-07
-3.2797e-07 -4.74036e-07 -1.27987e-07
-3.80462e-07 -3.00211e-07 -1.36744e-07
-3.72566e-07 -2.83958e-07 -1.39288e-07
-3.77008e-07 -2.78923e-07 -1.411e-07
-1.90752e-07 -1.3175e-07 -1.38837e-07
-1.4636e-07 -3.33539e-07 -5.15456e-08
-4.03435e-07 -2.87015e-07 -1.45561e-07
-6.68495e-07 -1.64714e-07 -1.54205e-07
-6.67045e-07 -1.5784e-07 -1.54185e-07
-6.81205e-07 -1.44358e-07 -1.54325e-07
-6.81174e-07 1.44295e-07 -1.54326e-07
-6.67009e-07 1.57775e-07 -1.54187e-07
-6.68456e-07 1.6465e-07 -1.54207e-07
-4.02961e-07 2.86841e-07 -1.45385e-07
-3.77342e-07 2.78792e-07 -1.41337e-07
-1.90587e-07 1.31615e-07 -1.38821e-07
-4.00922e-07 -4.51632e-11 -1.45638e-07
-3.72831e-07 2.83829e-07 -1.39472e-07
-3.80619e-07 3.00114e-07 -1.36849e-07
-3.27765e-07 4.73898e-07 -1.27993e-07
-3.12125e-07 4.8731e-07 -1.27395e-07
-3.1194e-07 4.94593e-07 -1.27587e-07
-1.3542e-07 5.49847e-07 -1.27146e-07
-1.10815e-07 5.46921e-07 -1.27725e-07
2.12097e-08 4.29638e-07 -1.28558e-07
-1.46247e-07 3.33916e-07 -5.15183e-08
6.45806e-09 1.99764e-07 1.27807e-07
-1.31637e-07 1.46186e-07 1.2375e-07
-1.0055e-07 1.59434e-07 1.14912e-07
-7.18055e-08 1.71981e-07 1.13883e-07
-4.14127e-08 1.8571e-07 1.20477e-07
-1.69887e-07 1.24552e-07 1.34923e-07
-1.72539e-07 1.14504e-07 1.36337e-07
-1.80191e-07 -6.32373e-08 1.34898e-07
-1.79517e-07 -2.06099e-08 1.31462e-07
-1.79429e-07 2.05247e-08 1.31337e-07
-1.80075e-07 6.31338e-08 1.34937e-07
-1.72727e-07 -1.14616e-07 1.36355e-07
-1.70076e-07 -1.24667e-07 1.34947e-07
-4.13548e-08 -1.8573e-07 1.20438e-07
-7.19248e-08 -1.71924e-07 1.14265e-07
-1.00728e-07 -1.59472e-07 1.14979e-07
-1.31826e-07 -1.46277e-07 1.23787e-07
6.27058e-09 -1.99646e-07 1.2783e-07
1.32841e-07 -1.28189e-07 1.19596e-07
1.05029e-07 -1.45137e-07 1.12242e-07
7.94351e-08 -1.61619e-07 1.12261e-07
5.20196e-08 -1.79573e-07 1.19695e-07
1.69581e-07 -9.56069e-08 1.27795e-07
1.77491e-07 4.74569e-08 1.195e-07
1.77214e-07 1.50015e-08 1.12366e-07
1.77095e-07 -1.49822e-08 1.12639e-07
1.77461e-07 -4.73855e-08 1.19393e-07
1.69813e-07 9.58328e-08 1.27968e-07
5.20287e-08 1.79807e-07 1.19593e-07
7.95302e-08 1.61795e-07 1.12611e-07
1.05207e-07 1.45365e-07 1.12606e-07
1.33103e-07 1.28201e-07 1.1954e-07
0 0 0
0 0 0
0 0 0
1.73171e-08 2.06617e-07 1.28445e-07
1.43396e-08 2.16446e-07 1.27896e-07
1.0613e-08 2.64594e-07 1.19889e-07
1.42098e-08 2.97962e-07 1.13263e-07
1.80952e-08 3.2913e-07 1.1303e-07
2.18472e-08 3.63294e-07 1.2007e-07
3.18245e-08 4.13002e-07 1.27869e-07
3.41393e-08 4.25508e-07 1.28063e-07
7.63297e-08 4.38898e-07 1.20422e-07
1.06402e-07 4.44483e-07 1.14393e-07
1.30147e-07 4.57222e-07 1.14442e-07
1.54166e-07 4.79069e-07 1.19792e-07
2.00844e-07 5.0415e-07 1.26346e-07
2.46516e-07 4.7543e-07 1.19965e-07
2.69314e-07 4.50444e-07 1.13787e-07
2.92525e-07 4.3493e-07 1.13907e-07
3.23262e-07 4.24992e-07 1.19504e-07
3.68425e-07 3.95932e-07 1.26442e-07
3.66035e-07 3.42125e-07 1.1963e-07
3.54764e-07 3.10883e-07 1.1465e-07
3.52583e-07 2.83727e-07 1.14433e-07
3.587e-07 2.53849e-07 1.20672e-07
3.56044e-07 2.0615e-07 1.27839e-07
2.26617e-07 1.27307e-07 1.19771e-07
2.55899e-07 1.42826e-07 1.12452e-07
2.83423e-07 1.57581e-07 1.12547e-07
3.13641e-07 1.73764e-07 1.19845e-07
1.79184e-07 1.10569e-07 1.27624e-07
1.91036e-07 3.13987e-07 5.18461e-08
1.76274e-07 3.02089e-07 5.12611e-08
1.87329e-07 2.89214e-07 5.05868e-08
1.85742e-07 9.41234e-08 1.27662e-07
1.89688e-07 1.03095e-07 1.28048e-07
3.63612e-07 1.92651e-07 1.27709e-07
4.05528e-07 1.69073e-07 1.20645e-07
4.2774e-07 1.47381e-07 1.14805e-07
4.51548e-07 1.34161e-07 1.14248e-07
4.8333e-07 1.26402e-07 1.19668e-07
5.30121e-07 9.93317e-08 1.26566e-07
5.30241e-07 4.592e-08 1.19731e-07
5.21844e-07 1.38046e-08 1.13889e-07
5.21463e-07 -1.43502e-08 1.14382e-07
5.30255e-07 -4.60466e-08 1.19557e-07
5.3e-07 -9.95263e-08 1.26476e-07
4.83146e-07 -1.26634e-07 1.19655e-07
4.51334e-07 -1.34334e-07 1.14227e-07
4.27499e-07 -1.47267e-07 1.14361e-07
4.05332e-07 -1.691e-07 1.20877e-07
3.63008e-07 -1.93043e-07 1.27481e-07
2.26394e-07 -1.2719e-07 1.19684e-07
2.55733e-07 -1.42842e-07 1.12825e-07
2.83306e-07 -1.57607e-07 1.12882e-07
3.13541e-07 -1.73792e-07 1.19683e-07
1.89513e-07 -1.03321e-07 1.28347e-07
1.85506e-07 -9.41297e-08 1.27701e-07
3.5417e-07 1.13161e-08 5.13834e-08
3.40033e-07 7.95898e-10 5.17563e-08
3.52942e-07 -1.19682e-08 5.14599e-08
1.79237e-07 -1.10493e-07 1.27607e-07
3.55987e-07 -2.06115e-07 1.2788e-07
3.5869e-07 -2.53927e-07 1.20497e-07
3.52143e-07 -2.83512e-07 1.14961e-07
3.55053e-07 -3.10555e-07 1.14177e-07
3.65881e-07 -3.42282e-07 1.19854e-07
3.68335e-07 -3.96055e-07 1.26595e-07
3.23093e-07 -4.24946e-07 1.19627e-07
2.92324e-07 -4.34937e-07 1.13961e-07
2.69125e-07 -4.50397e-07 1.13706e-07
2.46369e-07 -4.75393e-07 1.19924e-07
2.00708e-07 -5.04125e-07 1.26331e-07
1.54009e-07 -4.79055e-07 1.19801e-07
1.2998e-07 -4.5716e-07 1.1446e-07
1.06261e-07 -4.44387e-07 1.144e-07
7.61969e-08 -4.38811e-07 1.20412e-07
3.39782e-08 -4.25429e-07 1.2803e-07
3.1642e-08 -4.12914e-07 1.27824e-07
1.05128e-08 -2.64508e-07 1.19996e-07
1.42202e-08 -2.97963e-07 1.13002e-07
1.78861e-08 -3.29099e-07 1.13298e-07
2.17844e-08 -3.63221e-07 1.19972e-07
1.43864e-08 -2.16407e-07 1.27862e-07
1.72984e-08 -2.06778e-07 1.2815e-07
1.88184e-07 -2.8858e-07 5.16452e-08
1.76146e-07 -3.01395e-07 5.12584e-08
1.89928e-07 -3.13419e-07 5.07984e-08
-1.55019e-09 -2.1571e-07 1.2838e-07
1.92417e-08 -4.16311e-07 1.2828e-07
-1.69279e-08 -4.45962e-07 1.21068e-07
-4.24613e-08 -4.58695e-07 1.15128e-07
-6.14387e-08 -4.78288e-07 1.14718e-07
-8.06215e-08 -5.08104e-07 1.20667e-07
-1.23694e-07 -5.42979e-07 1.26893e-07
-1.72455e-07 -5.24247e-07 1.20381e-07
-1.99557e-07 -5.07837e-07 1.15043e-07
-2.27101e-07 -5.00599e-07 1.14855e-07
-2.6231e-07 -5.00124e-07 1.205e-07
-3.11764e-07 -4.911e-07 1.27621e-07
-3.18497e-07 -4.78106e-07 1.2732e-07
-3.25059e-07 -4.2841e-07 1.21424e-07
-3.25061e-07 -3.97515e-07 1.17171e-07
-3.34485e-07 -3.70706e-07 1.18738e-07
-3.54078e-07 -3.41743e-07 1.26186e-07
-3.72886e-07 -2.92769e-07 1.3684e-07
-3.74348e-07 -2.81257e-07 1.40391e-07
-2.3108e-07 -1.61877e-07 1.35401e-07
-2.66377e-07 -1.89084e-07 1.32173e-07
-3.01053e-07 -2.15795e-07 1.32344e-07
-3.37302e-07 -2.43937e-07 1.3644e-07
-1.81157e-07 -1.35018e-07 1.35847e-07
-1.60092e-07 -3.2419e-07 5.32834e-08
-1.7141e-07 -3.42173e-07 5.32961e-08
-1.56193e-07 -3.5004e-07 5.1769e-08
-1.89717e-07 -1.20028e-07 1.39887e-07
-3.92368e-07 -2.77474e-07 1.44126e-07
-4.60067e-07 -2.65685e-07 1.47968e-07
-5.13311e-07 -2.41923e-07 1.49304e-07
-5.65262e-07 -2.1696e-07 1.50817e-07
-6.16687e-07 -1.91229e-07 1.52679e-07
-6.67311e-07 -1.6139e-07 1.54217e-07
-6.71511e-07 -1.48231e-07 1.5421e-07
-6.82247e-07 -8.62034e-08 1.53488e-07
-6.82809e-07 -2.87359e-08 1.52864e-07
-6.82808e-07 2.86621e-08 1.52861e-07
-6.82231e-07 8.61326e-08 1.53488e-07
-6.71478e-07 1.48167e-07 1.54211e-07
-6.67274e-07 1.61326e-07 1.54219e-07
-6.16629e-07 1.91151e-07 1.52681e-07
-5.6519e-07 2.16844e-07 1.50804e-07
-5.1328e-07 2.4183e-07 1.49242e-07
-4.60059e-07 2.65707e-07 1.47996e-07
-3.91867e-07 2.77293e-07 1.44003e-07
-2.3093e-07 1.617e-07 1.35401e-07
-2.66249e-07 1.88876e-07 1.32201e-07
-3.00941e-07 2.15574e-07 1.32495e-07
-3.37191e-07 2.43792e-07 1.36438e-07
-1.89574e-07 1.19902e-07 1.39876e-07
-4.2462e-07 2.43464e-08 1.46799e-07
-4.4907e-07 -2.52775e-11 1.48074e-07
-4.24589e-07 -2.44424e-08 1.46856e-07
-1.8098e-07 1.34893e-07 1.35825e-07
-3.74659e-07 2.81115e-07 1.40605e-07
-3.7306e-07 2.92654e-07 1.36959e-07
-3.5414e-07 3.41629e-07 1.26247e-07
-3.34467e-07 3.70695e-07 1.18756e-07
-3.24936e-07 3.9749e-07 1.17208e-07
-3.24885e-07 4.28293e-07 1.21427e-07
-3.18296e-07 4.77965e-07 1.27328e-07
-3.11564e-07 4.90957e-07 1.27631e-07
-2.62129e-07 4.99933e-07 1.2053e-07
-2.26924e-07 5.00403e-07 1.14849e-07
-1.99478e-07 5.07267e-07 1.14607e-07
-1.72374e-07 5.2401e-07 1.20668e-07
-1.2348e-07 5.42937e-07 1.26927e-07
-8.05641e-08 5.08208e-07 1.20448e-07
-6.13703e-08 4.78784e-07 1.15207e-07
-4.23084e-08 4.5887e-07 1.15202e-07
-1.67361e-08 4.46057e-07 1.21118e-07
1.93841e-08 4.16398e-07 1.28355e-07
-1.60679e-09 2.15963e-07 1.282e-07
-1.54721e-07 3.50462e-07 5.26049e-08
-1.71285e-07 3.40461e-07 5.33163e-08
-1.6125e-07 3.24699e-07 5.24327e-08
6.45806e-09 1.99764e-07 -1.27807e-07
-1.31637e-07 1.46186e-07 -1.2375e-07
-1.0055e-07 1.59434e-07 -1.14912e-07
-7.18055e-08 1.71981e-07 -1.13883e-07
-4.14127e-08 1.8571e-07 -1.20477e-07
-1.69887e-07 1.24552e-07 -1.34923e-07
-1.72539e-07 1.14504e-07 -1.36337e-07
-1.80191e-07 -6.32373e-08 -1.34898e-07
-1.79517e-07 -2.06099e-08 -1.31462e-07
-1.79429e-07 2.05247e-08 -1.31337e-07
-1.80075e-07 6.31338e-08 -1.34937e-07
-1.72727e-07 -1.14616e-07 -1.36355e-07
-1.70076e-07 -1.24667e-07 -1.34947e-07
-4.13548e-08 -1.8573e-07 -1.20438e-07
-7.19248e-08 -1.71924e-07 -1.14265e-07
-1.00728e-07 -1.59472e-07 -1.14979e-07
-1.31826e-07 -1.46277e-07 -1.23787e-07
6.27058e-09 -1.99646e-07 -1.2783e-07
1.32841e-07 -1.28189e-07 -1.19596e-07
1.05029e-07 -1.45137e-07 -1.12242e-07
7.94351e-08 -1.61619e-07 -1.12261e-07
5.20196e-08 -1.79573e-07 -1.19695e-07
1.69581e-07 -9.56069e-08 -1.27795e-07
1.77491e-07 4.74569e-08 -1.195e-07
1.77214e-07 1.50015e-08 -1.12366e-07
1.77095e-07 -1.49822e-08 -1.12639e-07
1.77461e-07 -4.73855e-08 -1.19393e-07
1.69813e-07 9.58328e-08 -1.27968e-07
5.20287e-08 1.79807e-07 -1.19593e-07
7.95302e-08 1.61795e-07 -1.12611e-07
1.05207e-07 1.45365e-07 -1.12606e-07
1.33103e-07 1.28201e-07 -1.1954e-07
0 0 0
0 0 0
0 0 0
1.73171e-08 2.06617e-07 -1.28445e-07
1.43396e-08 2.16446e-07 -1.27896e-07
1.0613e-08 2.64594e-07 -1.19889e-07
1.42098e-08 2.97962e-07 -1.13263e-07
1.80952e-08 3.2913e-07 -1.1303e-07
2.18472e-08 3.63294e-07 -1.2007e-07
3.18245e-08 4.13002e-07 -1.27869e-07
3.41393e-08 4.25508e-07 -1.28063e-07
7.63297e-08 4.38898e-07 -1.20422e-07
1.06402e-07 4.44483e-07 -1.14393e-07
1.30147e-07 4.57222e-07 -1.14442e-07
1.54166e-07 4.79069e-07 -1.19792e-07
2.00844e-07 5.0415e-07 -1.26346e-07
2.46516e-07 4.7543e-07 -1.19965e-07
2.69314e-07 4.50444e-07 -1.13787e-07
2.92525e-07 4.3493e-07 -1.13907e-07
3.23262e-07 4.24992e-07 -1.19504e-07
3.68425e-07 3.95932e-07 -1.26442e-07
3.66035e-07 3.42125e-07 -1.1963e-07
3.54764e-07 3.10883e-07 -1.1465e-07
3.52583e-07 2.83727e-07 -1.14433e-07
3.587e-07 2.53849e-07 -1.20672e-07
3.56044e-07 2.0615e-07 -1.27839e-07
2.26617e-07 1.27307e-07 -1.19771e-07
2.55899e-07 1.42826e-07 -1.12452e-07
2.83423e-07 1.57581e-07 -1.12547e-07
3.13641e-07 1.73764e-07 -1.19845e-07
1.79184e-07 1.10569e-07 -1.27624e-07
1.91036e-07 3.13987e-07 -5.18461e-08
1.76274e-07 3.02089e-07 -5.12611e-08
1.87329e-07 2.89214e-07 -5.05868e-08
1.85742e-07 9.41234e-08 -1.27662e-07
1.89688e-07 1.03095e-07 -1.28048e-07
3.63612e-07 1.92651e-07 -1.27709e-07
4.05528e-07 1.69073e-07 -1.20645e-07
4.2774e-07 1.47381e-07 -1.14805e-07
4.51548e-07 1.34161e-07 -1.14248e-07
4.8333e-07 1.26402e-07 -1.19668e-07
5.30121e-07 9.93317e-08 -1.26566e-07
5.30241e-07 4.592e-08 -1.19731e-07
5.21844e-07 1.38046e-08 -1.13889e-07
5.21463e-07 -1.43502e-08 -1.14382e-07
5.30255e-07 -4.60466e-08 -1.19557e-07
5.3e-07 -9.95263e-08 -1.26476e-07
4.83146e-07 -1.26634e-07 -1.19655e-07
4.51334e-07 -1.34334e-07 -1.14227e-07
4.27499e-07 -1.47267e-07 -1.14361e-07
4.05332e-07 -1.691e-07 -1.20877e-07
3.63008e-07 -1.93043e-07 -1.27481e-07
2.26394e-07 -1.2719e-07 -1.19684e-07
2.55733e-07 -1.42842e-07 -1.12825e-07
2.83306e-07 -1.57607e-07 -1.12882e-07
3.13541e-07 -1.73792e-07 -1.19683e-07
1.89513e-07 -1.03321e-07 -1.28347e-07
1.85506e-07 -9.41297e-08 -1.27701e-07
3.5417e-07 1.13161e-08 -5.13834e-08
3.40033e-07 7.95898e-10 -5.17563e-08
3.52942e-07 -1.19682e-08 -5.14599e-08
1.79237e-07 -1.10493e-07 -1.27607e-07
3.55987e-07 -2.06115e-07 -1.2788e-07
3.5869e-07 -2.53927e-07 -1.20497e-07
3.52143e-07 -2.83512e-07 -1.14961e-07
3.55053e-07 -3.10555e-07 -1.14177e-07
3.65881e-07 -3.42282e-07 -1.19854e-07
3.68335e-07 -3.96055e-07 -1.26595e-07
3.23093e-07 -4.24946e-07 -1.19627e-07
2.92324e-07 -4.34937e-07 -1.13961e-07
2.69125e-07 -4.50397e-07 -1.13706e-07
2.46369e-07 -4.75393e-07 -1.19924e-07
2.00708e-07 -5.04125e-07 -1.26331e-07
1.54009e-07 -4.79055e-07 -1.19801e-07
1.2998e-07 -4.5716e-07 -1.1446e-07
1.06261e-07 -4.44387e-07 -1.144e-07
7.61969e-08 -4.38811e-07 -1.20412e-07
3.39782e-08 -4.25429e-07 -1.2803e-07
3.1642e-08 -4.12914e-07 -1.27824e-07
1.05128e-08 -2.64508e-07 -1.19996e-07
1.42202e-08 -2.97963e-07 -1.13002e-07
1.78861e-08 -3.29099e-07 -1.13298e-07
2.17844e-08 -3.63221e-07 -1.19972e-07
1.43864e-08 -2.16407e-07 -1.27862e-07
1.72984e-08 -2.06778e-07 -1.2815e-07
1.88184e-07 -2.8858e-07 -5.16452e-08
1.76146e-07 -3.01395e-07 -5.12584e-08
1.89928e-07 -3.13419e-07 -5.07984e-08
-1.55019e-09 -2.1571e-07 -1.2838e-07
1.92417e-08 -4.16311e-07 -1.2828e-07
-1.69279e-08 -4.45962e-07 -1.21068e-07
-4.24613e-08 -4.58695e-07 -1.15128e-07
-6.14387e-08 -4.78288e-07 -1.14718e-07
-8.06215e-08 -5.08104e-07 -1.20667e-07
-1.23694e-07 -5.42979e-07 -1.26893e-07
-1.72455e-07 -5.24247e-07 -1.20381e-07
-1.99557e-07 -5.07837e-07 -1.15043e-07
-2.27101e-07 -5.00599e-07 -1.14855e-07
-2.6231e-07 -5.00124e-07 -1.205e-07
-3.11764e-07 -4.911e-07 -1.27621e-07
-3.18497e-07 -4.78106e-07 -1.2732e-07
-3.25059e-07 -4.2841e-07 -1.21424e-07
-3.25061e-07 -3.97515e-07 -1.17171e-07
-3.34485e-07 -3.70706e-07 -1.18738e-07
-3.54078e-07 -3.41743e-07 -1.26186e-07
-3.72886e-07 -2.92769e-07 -1.3684e-07
-3.74348e-07 -2.81257e-07 -1.40391e-07
-2.3108e-07 -1.61877e-07 -1.35401e-07
-2.66377e-07 -1.89084e-07 -1.32173e-07
-3.01053e-07 -2.15795e-07 -1.32344e-07
-3.37302e-07 -2.43937e-07 -1.3644e-07
-1.81157e-07 -1.35018e-07 -1.35847e-07
-1.60092e-07 -3.2419e-07 -5.32834e-08
-1.7141e-07 -3.42173e-07 -5.32961e-08
-1.56193e-07 -3.5004e-07 -5.1769e-08
-1.89717e-07 -1.20028e-07 -1.39887e-07
-3.92368e-07 -2.77474e-07 -1.44126e-07
-4.60067e-07 -2.65685e-07 -1.47968e-07
-5.13311e-07 -2.41923e-07 -1.49304e-07
-5.65262e-07 -2.1696e-07 -1.50817e-07
-6.16687e-07 -1.91229e-07 -1.52679e-07
-6.67311e-07 -1.6139e-07 -1.54217e-07
-6.71511e-07 -1.48231e-07 -1.5421e-07
-6.82247e-07 -8.62034e-08 -1.53488e-07
-6.82809e-07 -2.87359e-08 -1.52864e-07
-6.82808e-07 2.86621e-08 -1.52861e-07
-6.82231e-07 8.61326e-08 -1.53488e-07
-6.71478e-07 1.48167e-07 -1.54211e-07
-6.67274e-07 1.61326e-07 -1.54219e-07
-6.16629e-07 1.91151e-07 -1.52681e-07
-5.6519e-07 2.16844e-07 -1.50804e-07
-5.1328e-07 2.4183e-07 -1.49242e-07
-4.60059e-07 2.65707e-07 -1.47996e-07
-3.91867e-07 2.77293e-07 -1.44003e-07
-2.3093e-07 1.617e-07 -1.35401e-07
-2.66249e-07 1.88876e-07 -1.32201e-07
-3.00941e-07 2.15574e-07 -1.32495e-07
-3.37191e-07 2.43792e-07 -1.36438e-07
-1.89574e-07 1.19902e-07 -1.39876e-07
-4.2462e-07 2.43464e-08 -1.46799e-07