# vtk DataFile Version 3.0
vtk output at time 0.6
ASCII
DATASET UNSTRUCTURED_GRID
POINTS 2586 float
-1.84029e-05 0.000489375 0 1.84029e-05 0.000489375 0 -0.000414597 0.000260625 0 
-0.00041175 0.00025 0 -0.000433 0.00022875 0 -0.000433 -0.00022875 0 
-0.00041175 -0.00025 0 -0.000414597 -0.000260625 0 -1.84029e-05 -0.000489375 0 
1.84029e-05 -0.000489375 0 0.000414597 -0.000260625 0 0.000433 -0.00022875 0 
0.000433 0.00022875 0 0.000414597 0.000260625 0 4.25e-05 0 0 
2.125e-05 0.0005 0 5.90898e-17 0.00052125 0 5.90919e-17 0.00097875 0 
2.125e-05 0.001 0 1.84029e-05 0.00101063 0 0.000414597 0.00123937 0 
0.000451403 0.00123937 0 0.000847597 0.00101063 0 0.000866 0.00097875 0 
0.000866 0.00052125 0 0.000847597 0.000489375 0 0.000451403 0.000260625 0 
0.0004755 0.00075 0 0.00045425 0.00025 0 0.000884403 0.000489375 0 
0.0012806 0.000260625 0 0.001299 0.00022875 0 0.001299 -0.00022875 0 
0.0012806 -0.000260625 0 0.000884403 -0.000489375 0 0.000847597 -0.000489375 0 
0.000451403 -0.000260625 0 0.00045425 -0.00025 0 0.0009085 0 0 
0.000866 -0.00052125 0 0.000866 -0.00097875 0 0.000847597 -0.00101063 0 
0.000451403 -0.00123937 0 0.000414597 -0.00123937 0 1.84029e-05 -0.00101063 0 
2.125e-05 -0.001 0 5.90898e-17 -0.00097875 0 5.90919e-17 -0.00052125 0 
2.125e-05 -0.0005 0 0.0004755 -0.00075 0 -1.84029e-05 -0.00101063 0 
-0.000414597 -0.00123937 0 -0.000451403 -0.00123937 0 -0.000847597 -0.00101063 0 
-0.00084475 -0.001 0 -0.000866 -0.00097875 0 -0.000866 -0.00052125 0 
-0.00084475 -0.0005 0 -0.000847597 -0.000489375 0 -0.000451403 -0.000260625 0 
-0.0003905 -0.00075 0 -0.000884403 -0.000489375 0 -0.0012806 -0.000260625 0 
-0.00127775 -0.00025 0 -0.001299 -0.00022875 0 -0.001299 0.00022875 0 
-0.00127775 0.00025 0 -0.0012806 0.000260625 0 -0.000884403 0.000489375 0 
-0.000847597 0.000489375 0 -0.000451403 0.000260625 0 -0.0008235 0 0 
-0.00084475 0.0005 0 -0.000866 0.00052125 0 -0.000866 0.00097875 0 
-0.00084475 0.001 0 -0.000847597 0.00101063 0 -0.000451403 0.00123937 0 
-0.000414597 0.00123937 0 -1.84029e-05 0.00101063 0 -0.0003905 0.00075 0 
-1.84029e-05 0.000489375 -0.0005 1.84029e-05 0.000489375 -0.0005 -0.000414597 0.000260625 -0.0005 
-0.00041175 0.00025 -0.0005 -0.000433 0.00022875 -0.0005 -0.000433 -0.00022875 -0.0005 
-0.00041175 -0.00025 -0.0005 -0.000414597 -0.000260625 -0.0005 -1.84029e-05 -0.000489375 -0.0005 
1.84029e-05 -0.000489375 -0.0005 0.000414597 -0.000260625 -0.0005 0.000433 -0.00022875 -0.0005 
0.000433 0.00022875 -0.0005 0.000414597 0.000260625 -0.0005 4.25e-05 0 -0.0005 
2.125e-05 0.0005 -0.0005 5.90898e-17 0.00052125 -0.0005 5.90919e-17 0.00097875 -0.0005 
2.125e-05 0.001 -0.0005 1.84029e-05 0.00101063 -0.0005 0.000414597 0.00123937 -0.0005 
0.000451403 0.00123937 -0.0005 0.000847597 0.00101063 -0.0005 0.000866 0.00097875 -0.0005 
0.000866 0.00052125 -0.0005 0.000847597 0.000489375 -0.0005 0.000451403 0.000260625 -0.0005 
0.0004755 0.00075 -0.0005 0.00045425 0.00025 -0.0005 0.000884403 0.000489375 -0.0005 
0.0012806 0.000260625 -0.0005 0.001299 0.00022875 -0.0005 0.001299 -0.00022875 -0.0005 
0.0012806 -0.000260625 -0.0005 0.000884403 -0.000489375 -0.0005 0.000847597 -0.000489375 -0.0005 
0.000451403 -0.000260625 -0.0005 0.00045425 -0.00025 -0.0005 0.0009085 0 -0.0005 
0.000866 -0.00052125 -0.0005 0.000866 -0.00097875 -0.0005 0.000847597 -0.00101063 -0.0005 
0.000451403 -0.00123937 -0.0005 0.000414597 -0.00123937 -0.0005 1.84029e-05 -0.00101063 -0.0005 
2.125e-05 -0.001 -0.0005 5.90898e-17 -0.00097875 -0.0005 5.90919e-17 -0.00052125 -0.0005 
2.125e-05 -0.0005 -0.0005 0.0004755 -0.00075 -0.0005 -1.84029e-05 -0.00101063 -0.0005 
-0.000414597 -0.00123937 -0.0005 -0.000451403 -0.00123937 -0.0005 -0.000847597 -0.00101063 -0.0005 
-0.00084475 -0.001 -0.0005 -0.000866 -0.00097875 -0.0005 -0.000866 -0.00052125 -0.0005 
-0.00084475 -0.0005 -0.0005 -0.000847597 -0.000489375 -0.0005 -0.000451403 -0.000260625 -0.0005 
-0.0003905 -0.00075 -0.0005 -0.000884403 -0.000489375 -0.0005 -0.0012806 -0.000260625 -0.0005 
-0.00127775 -0.00025 -0.0005 -0.001299 -0.00022875 -0.0005 -0.001299 0.00022875 -0.0005 
-0.00127775 0.00025 -0.0005 -0.0012806 0.000260625 -0.0005 -0.000884403 0.000489375 -0.0005 
-0.000847597 0.000489375 -0.0005 -0.000451403 0.000260625 -0.0005 -0.0008235 0 -0.0005 
-0.00084475 0.0005 -0.0005 -0.000866 0.00052125 -0.0005 -0.000866 0.00097875 -0.0005 
-0.00084475 0.001 -0.0005 -0.000847597 0.00101063 -0.0005 -0.000451403 0.00123937 -0.0005 
-0.000414597 0.00123937 -0.0005 -1.84029e-05 0.00101063 -0.0005 -0.0003905 0.00075 -0.0005 
-9.82724e-20 0.00047875 0 -0.000335358 0.000306375 0 -0.000256119 0.000352125 0 
-0.000176881 0.000397875 0 -9.76417e-05 0.000443625 0 -0.000412474 0.0002555 0 
-0.000417974 0.000234974 0 -0.000433 -0.00013725 0 -0.000433 -4.575e-05 0 
-0.000433 4.575e-05 0 -0.000433 0.00013725 0 -0.000417974 -0.000234974 0 
-0.000412474 -0.0002555 0 -9.76417e-05 -0.000443625 0 -0.000176881 -0.000397875 0 
-0.000256119 -0.000352125 0 -0.000335358 -0.000306375 0 -1.07223e-19 -0.00047875 0 
0.000335358 -0.000306375 0 0.000256119 -0.000352125 0 0.000176881 -0.000397875 0 
9.76417e-05 -0.000443625 0 0.000414597 -0.000239375 0 0.000433 0.00013725 0 
0.000433 4.575e-05 0 0.000433 -4.575e-05 0 0.000433 -0.00013725 0 
0.000414597 0.000239375 0 9.76417e-05 0.000443625 0 0.000176881 0.000397875 0 
0.000256119 0.000352125 0 0.000335358 0.000306375 0 -1.29514e-19 4.25e-05 0 
-4.25e-05 -3.53397e-19 0 4.07417e-19 -4.25e-05 0 2.05259e-05 0.0004945 0 
1.5026e-05 0.000515026 0 0 0.00061275 0 0 0.00070425 0 
0 0.00079575 0 0 0.00088725 0 1.5026e-05 0.000984974 0 
2.05259e-05 0.0010055 0 9.76417e-05 0.00105638 0 0.000176881 0.00110213 0 
0.000256119 0.00114787 0 0.000335358 0.00119362 0 0.000433 0.00122875 0 
0.000530642 0.00119362 0 0.000609881 0.00114787 0 0.000689119 0.00110213 0 
0.000768358 0.00105638 0 0.000847597 0.000989375 0 0.000866 0.00088725 0 
0.000866 0.00079575 0 0.000866 0.00070425 0 0.000866 0.00061275 0 
0.000847597 0.000510625 0 0.000530642 0.000306375 0 0.000609881 0.000352125 0 
0.000689119 0.000397875 0 0.000768358 0.000443625 0 0.000433 0.00027125 0 
0.000433 0.0007925 0 0.0003905 0.00075 0 0.000433 0.0007075 0 
0.000448026 0.000234974 0 0.000453526 0.0002555 0 0.000866 0.00047875 0 
0.000963642 0.000443625 0 0.00104288 0.000397875 0 0.00112212 0.000352125 0 
0.00120136 0.000306375 0 0.0012806 0.000239375 0 0.001299 0.00013725 0 
0.001299 4.575e-05 0 0.001299 -4.575e-05 0 0.001299 -0.00013725 0 
0.0012806 -0.000239375 0 0.00120136 -0.000306375 0 0.00112212 -0.000352125 0 
0.00104288 -0.000397875 0 0.000963642 -0.000443625 0 0.000866 -0.00047875 0 
0.000530642 -0.000306375 0 0.000609881 -0.000352125 0 0.000689119 -0.000397875 0 
0.000768358 -0.000443625 0 0.000453526 -0.0002555 0 0.000448026 -0.000234974 0 
0.000866 4.25e-05 0 0.0008235 -3.53397e-19 0 0.000866 -4.25e-05 0 
0.000433 -0.00027125 0 0.000847597 -0.000510625 0 0.000866 -0.00061275 0 
0.000866 -0.00070425 0 0.000866 -0.00079575 0 0.000866 -0.00088725 0 
0.000847597 -0.000989375 0 0.000768358 -0.00105638 0 0.000689119 -0.00110213 0 
0.000609881 -0.00114787 0 0.000530642 -0.00119362 0 0.000433 -0.00122875 0 
0.000335358 -0.00119362 0 0.000256119 -0.00114787 0 0.000176881 -0.00110213 0 
9.76417e-05 -0.00105638 0 2.05259e-05 -0.0010055 0 1.5026e-05 -0.000984974 0 
0 -0.00061275 0 0 -0.00070425 0 0 -0.00079575 0 
0 -0.00088725 0 1.5026e-05 -0.000515026 0 2.05259e-05 -0.0004945 0 
0.000433 -0.0007075 0 0.0003905 -0.00075 0 0.000433 -0.0007925 0 
-1.84031e-05 -0.000510625 0 -1.84031e-05 -0.000989375 0 -9.76417e-05 -0.00105638 0 
-0.000176881 -0.00110213 0 -0.000256119 -0.00114787 0 -0.000335358 -0.00119362 0 
-0.000433 -0.00122875 0 -0.000530642 -0.00119362 0 -0.000609881 -0.00114787 0 
-0.000689119 -0.00110213 0 -0.000768358 -0.00105638 0 -0.000845474 -0.0010055 0 
-0.000850974 -0.000984974 0 -0.000866 -0.00088725 0 -0.000866 -0.00079575 0 
-0.000866 -0.00070425 0 -0.000866 -0.00061275 0 -0.000850974 -0.000515026 0 
-0.000845474 -0.0004945 0 -0.000530642 -0.000306375 0 -0.000609881 -0.000352125 0 
-0.000689119 -0.000397875 0 -0.000768358 -0.000443625 0 -0.000433 -0.00027125 0 
-0.000433 -0.0007075 0 -0.0004755 -0.00075 0 -0.000433 -0.0007925 0 
-0.000451403 -0.000239375 0 -0.000866 -0.00047875 0 -0.000963642 -0.000443625 0 
-0.00104288 -0.000397875 0 -0.00112212 -0.000352125 0 -0.00120136 -0.000306375 0 
-0.00127847 -0.0002555 0 -0.00128397 -0.000234974 0 -0.001299 -0.00013725 0 
-0.001299 -4.575e-05 0 -0.001299 4.575e-05 0 -0.001299 0.00013725 0 
-0.00128397 0.000234974 0 -0.00127847 0.0002555 0 -0.00120136 0.000306375 0 
-0.00112212 0.000352125 0 -0.00104288 0.000397875 0 -0.000963642 0.000443625 0 
-0.000866 0.00047875 0 -0.000530642 0.000306375 0 -0.000609881 0.000352125 0 
-0.000689119 0.000397875 0 -0.000768358 0.000443625 0 -0.000451403 0.000239375 0 
-0.000866 4.25e-05 0 -0.0009085 -3.53397e-19 0 -0.000866 -4.25e-05 0 
-0.000433 0.00027125 0 -0.000845474 0.0004945 0 -0.000850974 0.000515026 0 
-0.000866 0.00061275 0 -0.000866 0.00070425 0 -0.000866 0.00079575 0 
-0.000866 0.00088725 0 -0.000850974 0.000984974 0 -0.000845474 0.0010055 0 
-0.000768358 0.00105638 0 -0.000689119 0.00110213 0 -0.000609881 0.00114787 0 
-0.000530642 0.00119362 0 -0.000433 0.00122875 0 -0.000335358 0.00119362 0 
-0.000256119 0.00114787 0 -0.000176881 0.00110213 0 -9.76417e-05 0.00105638 0 
-1.84031e-05 0.000989375 0 -1.84031e-05 0.000510625 0 -0.000433 0.0007925 0 
-0.0004755 0.00075 0 -0.000433 0.0007075 0 -9.82724e-20 0.00047875 -0.0005 
-0.000335358 0.000306375 -0.0005 -0.000256119 0.000352125 -0.0005 -0.000176881 0.000397875 -0.0005 
-9.76417e-05 0.000443625 -0.0005 -0.000412474 0.0002555 -0.0005 -0.000417974 0.000234974 -0.0005 
-0.000433 -0.00013725 -0.0005 -0.000433 -4.575e-05 -0.0005 -0.000433 4.575e-05 -0.0005 
-0.000433 0.00013725 -0.0005 -0.000417974 -0.000234974 -0.0005 -0.000412474 -0.0002555 -0.0005 
[...]
POINT_DATA 2586
VECTORS displacement float
-1.97829e-09 1.53828e-07 9.61838e-08
1.19354e-08 1.52805e-07 9.62738e-08
-1.28348e-07 9.56581e-08 1.01078e-07
-1.27127e-07 9.11673e-08 1.01125e-07
-1.34764e-07 8.39376e-08 1.04048e-07
-1.34903e-07 -8.40194e-08 1.04059e-07
-1.27269e-07 -9.12528e-08 1.01142e-07
-1.28489e-07 -9.57442e-08 1.01096e-07
-1.98968e-09 -1.53524e-07 9.64708e-08
1.18988e-08 -1.52955e-07 9.60187e-08
1.2709e-07 -7.94265e-08 9.5928e-08
1.34012e-07 -6.75199e-08 9.61745e-08
1.34185e-07 6.7604e-08 9.6218e-08
1.27219e-07 7.97059e-08 9.62134e-08
0 0 0
1.30575e-08 1.5675e-07 9.60453e-08
5.9562e-09 1.65719e-07 9.64005e-08
1.98508e-08 3.0642e-07 9.64781e-08
2.58005e-08 3.16267e-07 9.5827e-08
2.49336e-08 3.21569e-07 9.59657e-08
1.41815e-07 3.82276e-07 9.53205e-08
1.60304e-07 3.81732e-07 9.48783e-08
2.75393e-07 3.07075e-07 9.49555e-08
2.84046e-07 2.90806e-07 9.5082e-08
2.75557e-07 1.58972e-07 9.61225e-08
2.65118e-07 1.4688e-07 9.60051e-08
1.41272e-07 7.93131e-08 9.59421e-08
1.49884e-07 2.25019e-07 3.8304e-08
1.42078e-07 7.55343e-08 9.57932e-08
2.81005e-07 1.49371e-07 9.63203e-08
3.96229e-07 8.47158e-08 9.50427e-08
4.05479e-07 6.88131e-08 9.51669e-08
4.05376e-07 -6.89522e-08 9.50979e-08
3.96123e-07 -8.48821e-08 9.49872e-08
2.809e-07 -1.49692e-07 9.57297e-08
2.65106e-07 -1.46806e-07 9.61642e-08
1.41165e-07 -7.95137e-08 9.61995e-08
1.41935e-07 -7.56636e-08 9.59643e-08
2.74009e-07 5.94246e-11 3.81963e-08
2.75504e-07 -1.58978e-07 9.61267e-08
2.84e-07 -2.90913e-07 9.51961e-08
2.75318e-07 -3.07155e-07 9.50594e-08
1.60203e-07 -3.81711e-07 9.48661e-08
1.41713e-07 -3.8226e-07 9.53115e-08
2.48139e-08 -3.2151e-07 9.59411e-08
2.56771e-08 -3.16208e-07 9.58009e-08
1.96959e-08 -3.06345e-07 9.64359e-08
5.99488e-09 -1.65612e-07 9.64483e-08
1.30549e-08 -1.56833e-07 9.58773e-08
1.49725e-07 -2.2614e-07 3.83072e-08
1.57582e-08 -3.22004e-07 9.63221e-08
-8.24979e-08 -4.09933e-07 9.52901e-08
-1.00947e-07 -4.12247e-07 9.57202e-08
-2.34006e-07 -3.70821e-07 9.56358e-08
-2.34144e-07 -3.65363e-07 9.5492e-08
-2.45871e-07 -3.55303e-07 9.59432e-08
-2.85192e-07 -2.25e-07 1.02503e-07
-2.79269e-07 -2.12818e-07 1.04407e-07
-2.82597e-07 -2.09043e-07 1.05764e-07
-1.42986e-07 -9.87492e-08 1.04072e-07
-1.09722e-07 -2.50008e-07 3.86392e-08
-3.02405e-07 -2.15106e-07 1.09105e-07
-5.01036e-07 -1.23444e-07 1.15577e-07
-4.9995e-07 -1.18291e-07 1.15561e-07
-5.10564e-07 -1.08182e-07 1.15666e-07
-5.10541e-07 1.08136e-07 1.15667e-07
-4.99922e-07 1.18243e-07 1.15562e-07
-5.01007e-07 1.23396e-07 1.15577e-07
-3.0205e-07 2.14976e-07 1.08973e-07
-2.82847e-07 2.08945e-07 1.05942e-07
-1.42862e-07 9.86486e-08 1.04059e-07
-3.00501e-07 -3.38246e-11 1.09141e-07
-2.79467e-07 2.12721e-07 1.04545e-07
-2.8531e-07 2.24927e-07 1.02581e-07
-2.45718e-07 3.55199e-07 9.59479e-08
-2.33994e-07 3.65256e-07 9.54993e-08
-2.33856e-07 3.70715e-07 9.56435e-08
-1.01544e-07 4.12155e-07 9.53136e-08
-8.30975e-08 4.09963e-07 9.57477e-08
1.58824e-08 3.22061e-07 9.63726e-08
-1.09637e-07 2.50291e-07 3.86187e-08
-1.97829e-09 1.53828e-07 -9.61838e-08
1.19354e-08 1.52805e-07 -9.62738e-08
-1.28348e-07 9.56581e-08 -1.01078e-07
-1.27127e-07 9.11673e-08 -1.01125e-07
-1.34764e-07 8.39376e-08 -1.04048e-07
-1.34903e-07 -8.40194e-08 -1.04059e-07
-1.27269e-07 -9.12528e-08 -1.01142e-07
-1.28489e-07 -9.57442e-08 -1.01096e-07
-1.98968e-09 -1.53524e-07 -9.64708e-08
1.18988e-08 -1.52955e-07 -9.60187e-08
1.2709e-07 -7.94265e-08 -9.5928e-08
1.34012e-07 -6.75199e-08 -9.61745e-08
1.34185e-07 6.7604e-08 -9.6218e-08
1.27219e-07 7.97059e-08 -9.62134e-08
0 0 0
1.30575e-08 1.5675e-07 -9.60453e-08
5.9562e-09 1.65719e-07 -9.64005e-08
1.98508e-08 3.0642e-07 -9.64781e-08
2.58005e-08 3.16267e-07 -9.5827e-08
2.49336e-08 3.21569e-07 -9.59657e-08
1.41815e-07 3.82276e-07 -9.53205e-08
1.60304e-07 3.81732e-07 -9.48783e-08
2.75393e-07 3.07075e-07 -9.49555e-08
2.84046e-07 2.90806e-07 -9.5082e-08
2.75557e-07 1.58972e-07 -9.61225e-08
2.65118e-07 1.4688e-07 -9.60051e-08
1.41272e-07 7.93131e-08 -9.59421e-08
1.49884e-07 2.25019e-07 -3.8304e-08
1.42078e-07 7.55343e-08 -9.57932e-08
2.81005e-07 1.49371e-07 -9.63203e-08
3.96229e-07 8.47158e-08 -9.50427e-08
4.05479e-07 6.88131e-08 -9.51669e-08
4.05376e-07 -6.89522e-08 -9.50979e-08
3.96123e-07 -8.48821e-08 -9.49872e-08
2.809e-07 -1.49692e-07 -9.57297e-08
2.65106e-07 -1.46806e-07 -9.61642e-08
1.41165e-07 -7.95137e-08 -9.61995e-08
1.41935e-07 -7.56636e-08 -9.59643e-08
2.74009e-07 5.94246e-11 -3.81963e-08
2.75504e-07 -1.58978e-07 -9.61267e-08
2.84e-07 -2.90913e-07 -9.51961e-08
2.75318e-07 -3.07155e-07 -9.50594e-08
1.60203e-07 -3.81711e-07 -9.48661e-08
1.41713e-07 -3.8226e-07 -9.53115e-08
2.48139e-08 -3.2151e-07 -9.59411e-08
2.56771e-08 -3.16208e-07 -9.58009e-08
1.96959e-08 -3.06345e-07 -9.64359e-08
5.99488e-09 -1.65612e-07 -9.64483e-08
1.30549e-08 -1.56833e-07 -9.58773e-08
1.49725e-07 -2.2614e-07 -3.83072e-08
1.57582e-08 -3.22004e-07 -9.63221e-08
-8.24979e-08 -4.09933e-07 -9.52901e-08
-1.00947e-07 -4.12247e-07 -9.57202e-08
-2.34006e-07 -3.70821e-07 -9.56358e-08
-2.34144e-07 -3.65363e-07 -9.5492e-08
-2.45871e-07 -3.55303e-07 -9.59432e-08
-2.85192e-07 -2.25e-07 -1.02503e-07
-2.79269e-07 -2.12818e-07 -1.04407e-07
-2.82597e-07 -2.09043e-07 -1.05764e-07
-1.42986e-07 -9.87492e-08 -1.04072e-07
-1.09722e-07 -2.50008e-07 -3.86392e-08
-3.02405e-07 -2.15106e-07 -1.09105e-07
-5.01036e-07 -1.23444e-07 -1.15577e-07
-4.9995e-07 -1.18291e-07 -1.15561e-07
-5.10564e-07 -1.08182e-07 -1.15666e-07
-5.10541e-07 1.08136e-07 -1.15667e-07
-4.99922e-07 1.18243e-07 -1.15562e-07
-5.01007e-07 1.23396e-07 -1.15577e-07
-3.0205e-07 2.14976e-07 -1.08973e-07
-2.82847e-07 2.08945e-07 -1.05942e-07
-1.42862e-07 9.86486e-08 -1.04059e-07
-3.00501e-07 -3.38246e-11 -1.09141e-07
-2.79467e-07 2.12721e-07 -1.04545e-07
-2.8531e-07 2.24927e-07 -1.02581e-07
-2.45718e-07 3.55199e-07 -9.59479e-08
-2.33994e-07 3.65256e-07 -9.54993e-08
-2.33856e-07 3.70715e-07 -9.56435e-08
-1.01544e-07 4.12155e-07 -9.53136e-08
-8.30975e-08 4.09963e-07 -9.57477e-08
1.58824e-08 3.22061e-07 -9.63726e-08
-1.09637e-07 2.50291e-07 -3.86187e-08
4.83727e-09 1.49741e-07 9.58096e-08
-9.86727e-08 1.09574e-07 9.27619e-08
-7.53722e-08 1.19506e-07 8.61361e-08
-5.38282e-08 1.28912e-07 8.53653e-08
-3.10479e-08 1.39204e-07 9.03115e-08
-1.27345e-07 9.33553e-08 1.01139e-07
-1.29334e-07 8.58235e-08 1.02198e-07
-1.35068e-07 -4.73943e-08 1.01113e-07
-1.34563e-07 -1.54461e-08 9.85341e-08
-1.34497e-07 1.53823e-08 9.84406e-08
-1.34982e-07 4.73167e-08 1.01143e-07
-1.29475e-07 -8.59075e-08 1.02211e-07
-1.27486e-07 -9.34413e-08 1.01157e-07
-3.10045e-08 -1.39219e-07 9.02819e-08
-5.39177e-08 -1.28868e-07 8.56516e-08
-7.55061e-08 -1.19534e-07 8.61861e-08
-9.88145e-08 -1.09642e-07 9.27898e-08
4.69666e-09 -1.49653e-07 9.58266e-08
9.95747e-08 -9.6093e-08 8.96523e-08
7.87274e-08 -1.08796e-07 8.41371e-08
5.9543e-08 -1.21149e-07 8.41511e-08
3.89927e-08 -1.34606e-07 8.97261e-08
1.27117e-07 -7.16679e-08 9.58016e-08
1.33047e-07 3.55723e-08 8.95803e-08
1.3284e-07 1.12445e-08 8.42301e-08
1.32751e-07 -1.123e-08 8.44348e-08
1.33025e-07 -3.55188e-08 8.95001e-08
1.27291e-07 7.18373e-08 9.59313e-08
3.89995e-08 1.34781e-07 8.96493e-08
5.96142e-08 1.21281e-07 8.44133e-08
7.88605e-08 1.08967e-07 8.44103e-08
9.97711e-08 9.6102e-08 8.96099e-08
0 0 0
0 0 0
0 0 0
1.29777e-08 1.54878e-07 9.62884e-08
1.07449e-08 1.62246e-07 9.58766e-08
7.94944e-09 1.98341e-07 8.98715e-08
1.06439e-08 2.23352e-07 8.49025e-08
1.35545e-08 2.46715e-07 8.4728e-08
1.63648e-08 2.72325e-07 9.00077e-08
2.38423e-08 3.0959e-07 9.58561e-08
2.55778e-08 3.18965e-07 9.60018e-08
5.72063e-08 3.29002e-07 9.02721e-08
7.97488e-08 3.33189e-07 8.57512e-08
9.75468e-08 3.42739e-07 8.57883e-08
1.1555e-07 3.59117e-07 8.97997e-08
1.50542e-07 3.77921e-07 9.47141e-08
1.8478e-07 3.56391e-07 8.99295e-08
2.0187e-07 3.37662e-07 8.52972e-08
2.19268e-07 3.26034e-07 8.5387e-08
2.4231e-07 3.18586e-07 8.95834e-08
2.76168e-07 2.96803e-07 9.47864e-08
2.74377e-07 2.56467e-07 8.96785e-08
2.65928e-07 2.33047e-07 8.59439e-08
2.64294e-07 2.12692e-07 8.57818e-08
2.68882e-07 1.90296e-07 9.04597e-08
2.66893e-07 1.54537e-07 9.58343e-08
1.69874e-07 9.54328e-08 8.97839e-08
1.91823e-07 1.07066e-07 8.42953e-08
2.12455e-07 1.18126e-07 8.43665e-08
2.35105e-07 1.30258e-07 8.98393e-08
1.34316e-07 8.28841e-08 9.56729e-08
1.43195e-07 2.3537e-07 3.88651e-08
1.32129e-07 2.2645e-07 3.84265e-08
1.40417e-07 2.16799e-07 3.7921e-08
1.39232e-07 7.0556e-08 9.57016e-08
1.42191e-07 7.72819e-08 9.59913e-08
2.72568e-07 1.44417e-07 9.5737e-08
3.03989e-07 1.2674e-07 9.04393e-08
3.20638e-07 1.10479e-07 8.60602e-08
3.38484e-07 1.0057e-07 8.56424e-08
3.62308e-07 9.47541e-08 8.97064e-08
3.97386e-07 7.44617e-08 9.48789e-08
3.97475e-07 3.44213e-08 8.97541e-08
3.9118e-07 1.03475e-08 8.53733e-08
3.90893e-07 -1.07568e-08 8.57433e-08
3.97485e-07 -3.45164e-08 8.96233e-08
3.97295e-07 -7.46077e-08 9.48118e-08
3.62171e-07 -9.49281e-08 8.96966e-08
3.38324e-07 -1.00699e-07 8.56271e-08
3.20458e-07 -1.10394e-07 8.57273e-08
3.03842e-07 -1.26761e-07 9.06133e-08
2.72115e-07 -1.44711e-07 9.55659e-08
1.69707e-07 -9.53447e-08 8.97185e-08
1.91699e-07 -1.07078e-07 8.45746e-08
2.12366e-07 -1.18146e-07 8.46173e-08
2.3503e-07 -1.30278e-07 8.97174e-08
1.4206e-07 -7.7451e-08 9.62153e-08
1.39055e-07 -7.05608e-08 9.57312e-08
2.65488e-07 8.48274e-09 3.85183e-08
2.54891e-07 5.96636e-10 3.87977e-08
2.64568e-07 -8.97161e-09 3.85756e-08
1.34355e-07 -8.28275e-08 9.56607e-08
2.66851e-07 -1.5451e-07 9.58649e-08
2.68874e-07 -1.90354e-07 9.03288e-08
2.63965e-07 -2.1253e-07 8.61769e-08
2.66145e-07 -2.32802e-07 8.55892e-08
2.74261e-07 -2.56584e-07 8.98462e-08
2.761e-07 -2.96895e-07 9.49008e-08
2.42183e-07 -3.18552e-07 8.9676e-08
2.19118e-07 -3.26039e-07 8.54278e-08
2.01728e-07 -3.37627e-07 8.52364e-08
1.8467e-07 -3.56363e-07 8.98983e-08
1.5044e-07 -3.77903e-07 9.47033e-08
1.15433e-07 -3.59106e-07 8.9806e-08
9.74218e-08 -3.42692e-07 8.58018e-08
7.96426e-08 -3.33117e-07 8.57565e-08
5.71068e-08 -3.28937e-07 9.02645e-08
2.5457e-08 -3.18906e-07 9.59769e-08
2.37054e-08 -3.09524e-07 9.58225e-08
7.87435e-09 -1.98276e-07 8.99518e-08
1.06517e-08 -2.23353e-07 8.47071e-08
1.33977e-08 -2.46692e-07 8.49289e-08
1.63178e-08 -2.7227e-07 8.99339e-08
1.078e-08 -1.62217e-07 9.58509e-08
1.29636e-08 -1.54999e-07 9.60671e-08
1.41058e-07 -2.16324e-07 3.87144e-08
1.32033e-07 -2.2593e-07 3.84244e-08
1.42364e-07 -2.34943e-07 3.80798e-08
-1.16662e-09 -1.61694e-07 9.6239e-08
1.44083e-08 -3.1207e-07 9.61649e-08
-1.27104e-08 -3.34294e-07 9.07563e-08
-3.18527e-08 -3.43834e-07 8.6302e-08
-4.60799e-08 -3.58518e-07 8.59941e-08
-6.04611e-08 -3.80866e-07 9.04553e-08
-9.27524e-08 -4.07007e-07 9.51242e-08
-1.29303e-07 -3.92958e-07 9.02405e-08
-1.49617e-07 -3.80653e-07 8.62379e-08
-1.70262e-07 -3.75223e-07 8.60966e-08
-1.96653e-07 -3.74865e-07 9.0329e-08
-2.33724e-07 -3.68096e-07 9.56687e-08
-2.3877e-07 -3.58355e-07 9.54433e-08
-2.43683e-07 -3.21099e-07 9.10211e-08
-2.43678e-07 -2.97941e-07 8.78312e-08
-2.50738e-07 -2.77845e-07 8.90052e-08
-2.6542e-07 -2.56135e-07 9.45883e-08
-2.79511e-07 -2.19422e-07 1.02573e-07
-2.80603e-07 -2.10793e-07 1.05233e-07
-1.73216e-07 -1.2133e-07 1.01491e-07
-1.99671e-07 -1.41719e-07 9.90666e-08
-2.25661e-07 -1.61735e-07 9.91945e-08
-2.5283e-07 -1.82824e-07 1.02267e-07
-1.35793e-07 -1.01199e-07 1.01831e-07
-1.20015e-07 -2.42998e-07 3.99413e-08
-1.28499e-07 -2.56477e-07 3.99511e-08
-1.17095e-07 -2.62375e-07 3.88067e-08
-1.4221e-07 -8.99624e-08 1.04858e-07
-2.94109e-07 -2.07956e-07 1.08029e-07
-3.44843e-07 -1.99109e-07 1.10901e-07
-3.84738e-07 -1.81297e-07 1.11897e-07
-4.23665e-07 -1.62591e-07 1.13029e-07
-4.62202e-07 -1.43312e-07 1.14428e-07
-5.00149e-07 -1.20952e-07 1.15585e-07
-5.03297e-07 -1.11087e-07 1.1558e-07
-5.11337e-07 -6.45957e-08 1.15034e-07
-5.11752e-07 -2.15324e-08 1.14563e-07
-5.11752e-07 2.14772e-08 1.1456e-07
-5.11325e-07 6.45428e-08 1.15034e-07
-5.03273e-07 1.11039e-07 1.1558e-07
-5.00121e-07 1.20904e-07 1.15586e-07
-4.62159e-07 1.43254e-07 1.14429e-07
-4.23611e-07 1.62503e-07 1.1302e-07
-3.84715e-07 1.81228e-07 1.1185e-07
-3.44837e-07 1.99126e-07 1.10922e-07
-2.93733e-07 2.0782e-07 1.07937e-07
-1.73104e-07 1.21197e-07 1.01491e-07
-1.99575e-07 1.41562e-07 9.90875e-08
-2.25577e-07 1.61569e-07 9.93076e-08
-2.52747e-07 1.82715e-07 1.02266e-07
-1.42102e-07 8.98683e-08 1.0485e-07
-3.18262e-07 1.82458e-08 1.10009e-07
-3.36585e-07 -1.9003e-11 1.10964e-07
-3.18239e-07 -1.83178e-08 1.10052e-07
-1.3566e-07 1.01106e-07 1.01815e-07
-2.80837e-07 2.10686e-07 1.05394e-07
-2.79642e-07 2.19336e-07 1.02663e-07
-2.65467e-07 2.56049e-07 9.46342e-08
-2.50724e-07 2.77837e-07 8.90186e-08
-2.43585e-07 2.97922e-07 8.78595e-08
-2.43553e-07 3.21012e-07 9.10233e-08
-2.38619e-07 3.58249e-07 9.54489e-08
-2.33574e-07 3.6799e-07 9.56762e-08
-1.96517e-07 3.74722e-07 9.03513e-08
-1.70129e-07 3.75077e-07 8.6092e-08
-1.49558e-07 3.80225e-07 8.59107e-08
-1.29243e-07 3.9278e-07 9.04557e-08
-9.25916e-08 4.06975e-07 9.51496e-08
-6.0418e-08 3.80944e-07 9.0291e-08
-4.60286e-08 3.5889e-07 8.6361e-08
-3.17381e-08 3.43966e-07 8.63571e-08
-1.25666e-08 3.34365e-07 9.07933e-08
1.45151e-08 3.12135e-07 9.62204e-08
-1.20908e-09 1.61884e-07 9.61044e-08
-1.15991e-07 2.62692e-07 3.94334e-08
-1.28406e-07 2.55193e-07 3.99662e-08
-1.20883e-07 2.4338e-07 3.93036e-08
4.83727e-09 1.49741e-07 -9.58096e-08
-9.86727e-08 1.09574e-07 -9.27619e-08
-7.53722e-08 1.19506e-07 -8.61361e-08
-5.38282e-08 1.28912e-07 -8.53653e-08
-3.10479e-08 1.39204e-07 -9.03115e-08
-1.27345e-07 9.33553e-08 -1.01139e-07
-1.29334e-07 8.58235e-08 -1.02198e-07
-1.35068e-07 -4.73943e-08 -1.01113e-07
-1.34563e-07 -1.54461e-08 -9.85341e-08
-1.34497e-07 1.53823e-08 -9.84406e-08
-1.34982e-07 4.73167e-08 -1.01143e-07
-1.29475e-07 -8.59075e-08 -1.02211e-07
-1.27486e-07 -9.34413e-08 -1.01157e-07
-3.10045e-08 -1.39219e-07 -9.02819e-08
-5.39177e-08 -1.28868e-07 -8.56516e-08
-7.55061e-08 -1.19534e-07 -8.61861e-08
-9.88145e-08 -1.09642e-07 -9.27898e-08
4.69666e-09 -1.49653e-07 -9.58266e-08
9.95747e-08 -9.6093e-08 -8.96523e-08
7.87274e-08 -1.08796e-07 -8.41371e-08
5.9543e-08 -1.21149e-07 -8.41511e-08
3.89927e-08 -1.34606e-07 -8.97261e-08
1.27117e-07 -7.16679e-08 -9.58016e-08
1.33047e-07 3.55723e-08 -8.95803e-08
1.3284e-07 1.12445e-08 -8.42301e-08
1.32751e-07 -1.123e-08 -8.44348e-08
1.33025e-07 -3.55188e-08 -8.95001e-08
1.27291e-07 7.18373e-08 -9.59313e-08
3.89995e-08 1.34781e-07 -8.96493e-08
5.96142e-08 1.21281e-07 -8.44133e-08
7.88605e-08 1.08967e-07 -8.44103e-08
9.97711e-08 9.6102e-08 -8.96099e-08
0 0 0
0 0 0
0 0 0
1.29777e-08 1.54878e-07 -9.62884e-08
1.07449e-08 1.62246e-07 -9.58766e-08
7.94944e-09 1.98341e-07 -8.98715e-08
1.06439e-08 2.23352e-07 -8.49025e-08
1.35545e-08 2.46715e-07 -8.4728e-08
1.63648e-08 2.72325e-07 -9.00077e-08
2.38423e-08 3.0959e-07 -9.58561e-08
2.55778e-08 3.18965e-07 -9.60018e-08
5.72063e-08 3.29002e-07 -9.02721e-08
7.97488e-08 3.33189e-07 -8.57512e-08
9.75468e-08 3.42739e-07 -8.57883e-08
1.1555e-07 3.59117e-07 -8.97997e-08
1.50542e-07 3.77921e-07 -9.47141e-08
1.8478e-07 3.56391e-07 -8.99295e-08
2.0187e-07 3.37662e-07 -8.52972e-08
2.19268e-07 3.26034e-07 -8.5387e-08
2.4231e-07 3.18586e-07 -8.95834e-08
2.76168e-07 2.96803e-07 -9.47864e-08
2.74377e-07 2.56467e-07 -8.96785e-08
2.65928e-07 2.33047e-07 -8.59439e-08
2.64294e-07 2.12692e-07 -8.57818e-08
2.68882e-07 1.90296e-07 -9.04597e-08
2.66893e-07 1.54537e-07 -9.58343e-08
1.69874e-07 9.54328e-08 -8.97839e-08
1.91823e-07 1.07066e-07 -8.42953e-08
2.12455e-07 1.18126e-07 -8.43665e-08
2.35105e-07 1.30258e-07 -8.98393e-08
1.34316e-07 8.28841e-08 -9.56729e-08
1.43195e-07 2.3537e-07 -3.88651e-08
1.32129e-07 2.2645e-07 -3.84265e-08
1.40417e-07 2.16799e-07 -3.7921e-08
1.39232e-07 7.0556e-08 -9.57016e-08
1.42191e-07 7.72819e-08 -9.59913e-08
2.72568e-07 1.44417e-07 -9.5737e-08
3.03989e-07 1.2674e-07 -9.04393e-08
3.20638e-07 1.10479e-07 -8.60602e-08
3.38484e-07 1.0057e-07 -8.56424e-08
3.62308e-07 9.47541e-08 -8.97064e-08
3.97386e-07 7.44617e-08 -9.48789e-08
3.97475e-07 3.44213e-08 -8.97541e-08
3.9118e-07 1.03475e-08 -8.53733e-08
3.90893e-07 -1.07568e-08 -8.57433e-08
3.97485e-07 -3.45164e-08 -8.96233e-08
3.97295e-07 -7.46077e-08 -9.48118e-08
3.62171e-07 -9.49281e-08 -8.96966e-08
3.38324e-07 -1.00699e-07 -8.56271e-08
3.20458e-07 -1.10394e-07 -8.57273e-08
3.03842e-07 -1.26761e-07 -9.06133e-08
2.72115e-07 -1.44711e-07 -9.55659e-08
1.69707e-07 -9.53447e-08 -8.97185e-08
1.91699e-07 -1.07078e-07 -8.45746e-08
2.12366e-07 -1.18146e-07 -8.46173e-08
2.3503e-07 -1.30278e-07 -8.97174e-08
1.4206e-07 -7.7451e-08 -9.62153e-08
1.39055e-07 -7.05608e-08 -9.57312e-08
2.65488e-07 8.48274e-09 -3.85183e-08
2.54891e-07 5.96636e-10 -3.87977e-08
2.64568e-07 -8.97161e-09 -3.85756e-08
1.34355e-07 -8.28275e-08 -9.56607e-08
2.66851e-07 -1.5451e-07 -9.58649e-08
2.68874e-07 -1.90354e-07 -9.03288e-08
2.63965e-07 -2.1253e-07 -8.61769e-08
2.66145e-07 -2.32802e-07 -8.55892e-08
2.74261e-07 -2.56584e-07 -8.98462e-08
2.761e-07 -2.96895e-07 -9.49008e-08
2.42183e-07 -3.18552e-07 -8.9676e-08
2.19118e-07 -3.26039e-07 -8.54278e-08
2.01728e-07 -3.37627e-07 -8.52364e-08
1.8467e-07 -3.56363e-07 -8.98983e-08
1.5044e-07 -3.77903e-07 -9.47033e-08
1.15433e-07 -3.59106e-07 -8.9806e-08
9.74218e-08 -3.42692e-07 -8.58018e-08
7.96426e-08 -3.33117e-07 -8.57565e-08
5.71068e-08 -3.28937e-07 -9.02645e-08
2.5457e-08 -3.18906e-07 -9.59769e-08
2.37054e-08 -3.09524e-07 -9.58225e-08
7.87435e-09 -1.98276e-07 -8.99518e-08
1.06517e-08 -2.23353e-07 -8.47071e-08
1.33977e-08 -2.46692e-07 -8.49289e-08
1.63178e-08 -2.7227e-07 -8.99339e-08
1.078e-08 -1.62217e-07 -9.58509e-08
1.29636e-08 -1.54999e-07 -9.60671e-08
1.41058e-07 -2.16324e-07 -3.87144e-08
1.32033e-07 -2.2593e-07 -3.84244e-08
1.42364e-07 -2.34943e-07 -3.80798e-08
-1.16662e-09 -1.61694e-07 -9.6239e-08
1.44083e-08 -3.1207e-07 -9.61649e-08
-1.27104e-08 -3.34294e-07 -9.07563e-08
-3.18527e-08 -3.43834e-07 -8.6302e-08
-4.60799e-08 -3.58518e-07 -8.59941e-08
-6.04611e-08 -3.80866e-07 -9.04553e-08
-9.27524e-08 -4.07007e-07 -9.51242e-08
-1.29303e-07 -3.92958e-07 -9.02405e-08
-1.49617e-07 -3.80653e-07 -8.62379e-08
-1.70262e-07 -3.75223e-07 -8.60966e-08
-1.96653e-07 -3.74865e-07 -9.0329e-08
-2.33724e-07 -3.68096e-07 -9.56687e-08
-2.3877e-07 -3.58355e-07 -9.54433e-08
-2.43683e-07 -3.21099e-07 -9.10211e-08
-2.43678e-07 -2.97941e-07 -8.78312e-08
-2.50738e-07 -2.77845e-07 -8.90052e-08
-2.6542e-07 -2.56135e-07 -9.45883e-08
-2.79511e-07 -2.19422e-07 -1.02573e-07
-2.80603e-07 -2.10793e-07 -1.05233e-07
-1.73216e-07 -1.2133e-07 -1.01491e-07
-1.99671e-07 -1.41719e-07 -9.90666e-08
-2.25661e-07 -1.61735e-07 -9.91945e-08
-2.5283e-07 -1.82824e-07 -1.02267e-07
-1.35793e-07 -1.01199e-07 -1.01831e-07
-1.20015e-07 -2.42998e-07 -3.99413e-08
-1.28499e-07 -2.56477e-07 -3.99511e-08
-1.17095e-07 -2.62375e-07 -3.88067e-08
-1.4221e-07 -8.99624e-08 -1.04858e-07
-2.94109e-07 -2.07956e-07 -1.08029e-07
-3.44843e-07 -1.99109e-07 -1.10901e-07
-3.84738e-07 -1.81297e-07 -1.11897e-07
-4.23665e-07 -1.62591e-07 -1.13029e-07
-4.62202e-07 -1.43312e-07 -1.14428e-07
-5.00149e-07 -1.20952e-07 -1.15585e-07
-5.03297e-07 -1.11087e-07 -1.1558e-07
-5.11337e-07 -6.45957e-08 -1.15034e-07
-5.11752e-07 -2.15324e-08 -1.14563e-07
-5.11752e-07 2.14772e-08 -1.1456e-07
-5.11325e-07 6.45428e-08 -1.15034e-07
-5.03273e-07 1.11039e-07 -1.1558e-07
-5.00121e-07 1.20904e-07 -1.15586e-07
-4.62159e-07 1.43254e-07 -1.14429e-07
-4.23611e-07 1.62503e-07 -1.1302e-07
-3.84715e-07 1.81228e-07 -1.1185e-07
-3.44837e-07 1.99126e-07 -1.10922e-07
-2.93733e-07 2.0782e-07 -1.07937e-07
-1.73104e-07 1.21197e-07 -1.01491e-07
-1.99575e-07 1.41562e-07 -9.90875e-08
-2.25577e-07 1.61569e-07 -9.93076e-08
-2.52747e-07 1.82715e-07 -1.02266e-07
-1.42102e-07 8.98683e-08 -1.0485e-07