# vtk DataFile Version 3.0
vtk output at time 0.3
ASCII
DATASET UNSTRUCTURED_GRID
POINTS 2586 float
-1.84029e-05 0.000489375 0 1.84029e-05 0.000489375 0 -0.000414597 0.000260625 0 
-0.00041175 0.00025 0 -0.000433 0.00022875 0 -0.000433 -0.00022875 0 
-0.00041175 -0.00025 0 -0.000414597 -0.000260625 0 -1.84029e-05 -0.000489375 0 
1.84029e-05 -0.000489375 0 0.000414597 -0.000260625 0 0.000433 -0.00022875 0 
0.000433 0.00022875 0 0.000414597 0.000260625 0 4.25e-05 0 0 
2.125e-05 0.0005 0 5.90898e-17 0.00052125 0 5.90919e-17 0.00097875 0 
2.125e-05 0.001 0 1.84029e-05 0.00101063 0 0.000414597 0.00123937 0 
0.000451403 0.00123937 0 0.000847597 0.00101063 0 0.000866 0.00097875 0 
0.000866 0.00052125 0 0.000847597 0.000489375 0 0.000451403 0.000260625 0 
0.0004755 0.00075 0 0.00045425 0.00025 0 0.000884403 0.000489375 0 
0.0012806 0.000260625 0 0.001299 0.00022875 0 0.001299 -0.00022875 0 
0.0012806 -0.000260625 0 0.000884403 -0.000489375 0 0.000847597 -0.000489375 0 
0.000451403 -0.000260625 0 0.00045425 -0.00025 0 0.0009085 0 0 
0.000866 -0.00052125 0 0.000866 -0.00097875 0 0.000847597 -0.00101063 0 
0.000451403 -0.00123937 0 0.000414597 -0.00123937 0 1.84029e-05 -0.00101063 0 
2.125e-05 -0.001 0 5.90898e-17 -0.00097875 0 5.90919e-17 -0.00052125 0 
2.125e-05 -0.0005 0 0.0004755 -0.00075 0 -1.84029e-05 -0.00101063 0 
-0.000414597 -0.00123937 0 -0.000451403 -0.00123937 0 -0.000847597 -0.00101063 0 
-0.00084475 -0.001 0 -0.000866 -0.00097875 0 -0.000866 -0.00052125 0 
-0.00084475 -0.0005 0 -0.000847597 -0.000489375 0 -0.000451403 -0.000260625 0 
-0.0003905 -0.00075 0 -0.000884403 -0.000489375 0 -0.0012806 -0.000260625 0 
-0.00127775 -0.00025 0 -0.001299 -0.00022875 0 -0.001299 0.00022875 0 
-0.00127775 0.00025 0 -0.0012806 0.000260625 0 -0.000884403 0.000489375 0 
-0.000847597 0.000489375 0 -0.000451403 0.000260625 0 -0.0008235 0 0 
-0.00084475 0.0005 0 -0.000866 0.00052125 0 -0.000866 0.00097875 0 
-0.00084475 0.001 0 -0.000847597 0.00101063 0 -0.000451403 0.00123937 0 
-0.000414597 0.00123937 0 -1.84029e-05 0.00101063 0 -0.0003905 0.00075 0 
-1.84029e-05 0.000489375 -0.0005 1.84029e-05 0.000489375 -0.0005 -0.000414597 0.000260625 -0.0005 
-0.00041175 0.00025 -0.0005 -0.000433 0.00022875 -0.0005 -0.000433 -0.00022875 -0.0005 
-0.00041175 -0.00025 -0.0005 -0.000414597 -0.000260625 -0.0005 -1.84029e-05 -0.000489375 -0.0005 
1.84029e-05 -0.000489375 -0.0005 0.000414597 -0.000260625 -0.0005 0.000433 -0.00022875 -0.0005 
0.000433 0.00022875 -0.0005 0.000414597 0.000260625 -0.0005 4.25e-05 0 -0.0005 
2.125e-05 0.0005 -0.0005 5.90898e-17 0.00052125 -0.0005 5.90919e-17 0.00097875 -0.0005 
2.125e-05 0.001 -0.0005 1.84029e-05 0.00101063 -0.0005 0.000414597 0.00123937 -0.0005 
0.000451403 0.00123937 -0.0005 0.000847597 0.00101063 -0.0005 0.000866 0.00097875 -0.0005 
0.000866 0.00052125 -0.0005 0.000847597 0.000489375 -0.0005 0.000451403 0.000260625 -0.0005 
0.0004755 0.00075 -0.0005 0.00045425 0.00025 -0.0005 0.000884403 0.000489375 -0.0005 
0.0012806 0.000260625 -0.0005 0.001299 0.00022875 -0.0005 0.001299 -0.00022875 -0.0005 
0.0012806 -0.000260625 -0.0005 0.000884403 -0.000489375 -0.0005 0.000847597 -0.000489375 -0.0005 
0.000451403 -0.000260625 -0.0005 0.00045425 -0.00025 -0.0005 0.0009085 0 -0.0005 
0.000866 -0.00052125 -0.0005 0.000866 -0.00097875 -0.0005 0.000847597 -0.00101063 -0.0005 
0.000451403 -0.00123937 -0.0005 0.000414597 -0.00123937 -0.0005 1.84029e-05 -0.00101063 -0.0005 
2.125e-05 -0.001 -0.0005 5.90898e-17 -0.00097875 -0.0005 5.90919e-17 -0.00052125 -0.0005 
2.125e-05 -0.0005 -0.0005 0.0004755 -0.00075 -0.0005 -1.84029e-05 -0.00101063 -0.0005 
-0.000414597 -0.00123937 -0.0005 -0.000451403 -0.00123937 -0.0005 -0.000847597 -0.00101063 -0.0005 
-0.00084475 -0.001 -0.0005 -0.000866 -0.00097875 -0.0005 -0.000866 -0.00052125 -0.0005 
-0.00084475 -0.0005 -0.0005 -0.000847597 -0.000489375 -0.0005 -0.000451403 -0.000260625 -0.0005 
-0.0003905 -0.00075 -0.0005 -0.000884403 -0.000489375 -0.0005 -0.0012806 -0.000260625 -0.0005 
-0.00127775 -0.00025 -0.0005 -0.001299 -0.00022875 -0.0005 -0.001299 0.00022875 -0.0005 
-0.00127775 0.00025 -0.0005 -0.0012806 0.000260625 -0.0005 -0.000884403 0.000489375 -0.0005 
-0.000847597 0.000489375 -0.0005 -0.000451403 0.000260625 -0.0005 -0.0008235 0 -0.0005 
-0.00084475 0.0005 -0.0005 -0.000866 0.00052125 -0.0005 -0.000866 0.00097875 -0.0005 
-0.00084475 0.001 -0.0005 -0.000847597 0.00101063 -0.0005 -0.000451403 0.00123937 -0.0005 
-0.000414597 0.00123937 -0.0005 -1.84029e-05 0.00101063 -0.0005 -0.0003905 0.00075 -0.0005 
-9.82724e-20 0.00047875 0 -0.000335358 0.000306375 0 -0.000256119 0.000352125 0 
-0.000176881 0.000397875 0 -9.76417e-05 0.000443625 0 -0.000412474 0.0002555 0 
-0.000417974 0.000234974 0 -0.000433 -0.00013725 0 -0.000433 -4.575e-05 0 
-0.000433 4.575e-05 0 -0.000433 0.00013725 0 -0.000417974 -0.000234974 0 
-0.000412474 -0.0002555 0 -9.76417e-05 -0.000443625 0 -0.000176881 -0.000397875 0 
-0.000256119 -0.000352125 0 -0.000335358 -0.000306375 0 -1.07223e-19 -0.00047875 0 
0.000335358 -0.000306375 0 0.000256119 -0.000352125 0 0.000176881 -0.000397875 0 
9.76417e-05 -0.000443625 0 0.000414597 -0.000239375 0 0.000433 0.00013725 0 
0.000433 4.575e-05 0 0.000433 -4.575e-05 0 0.000433 -0.00013725 0 
0.000414597 0.000239375 0 9.76417e-05 0.000443625 0 0.000176881 0.000397875 0 
0.000256119 0.000352125 0 0.000335358 0.000306375 0 -1.29514e-19 4.25e-05 0 
-4.25e-05 -3.53397e-19 0 4.07417e-19 -4.25e-05 0 2.05259e-05 0.0004945 0 
1.5026e-05 0.000515026 0 0 0.00061275 0 0 0.00070425 0 
0 0.00079575 0 0 0.00088725 0 1.5026e-05 0.000984974 0 
2.05259e-05 0.0010055 0 9.76417e-05 0.00105638 0 0.000176881 0.00110213 0 
0.000256119 0.00114787 0 0.000335358 0.00119362 0 0.000433 0.00122875 0 
0.000530642 0.00119362 0 0.000609881 0.00114787 0 0.000689119 0.00110213 0 
0.000768358 0.00105638 0 0.000847597 0.000989375 0 0.000866 0.00088725 0 
0.000866 0.00079575 0 0.000866 0.00070425 0 0.000866 0.00061275 0 
0.000847597 0.000510625 0 0.000530642 0.000306375 0 0.000609881 0.000352125 0 
0.000689119 0.000397875 0 0.000768358 0.000443625 0 0.000433 0.00027125 0 
0.000433 0.0007925 0 0.0003905 0.00075 0 0.000433 0.0007075 0 
0.000448026 0.000234974 0 0.000453526 0.0002555 0 0.000866 0.00047875 0 
0.000963642 0.000443625 0 0.00104288 0.000397875 0 0.00112212 0.000352125 0 
0.00120136 0.000306375 0 0.0012806 0.000239375 0 0.001299 0.00013725 0 
0.001299 4.575e-05 0 0.001299 -4.575e-05 0 0.001299 -0.00013725 0 
0.0012806 -0.000239375 0 0.00120136 -0.000306375 0 0.00112212 -0.000352125 0 
0.00104288 -0.000397875 0 0.000963642 -0.000443625 0 0.000866 -0.00047875 0 
0.000530642 -0.000306375 0 0.000609881 -0.000352125 0 0.000689119 -0.000397875 0 
0.000768358 -0.000443625 0 0.000453526 -0.0002555 0 0.000448026 -0.000234974 0 
0.000866 4.25e-05 0 0.0008235 -3.53397e-19 0 0.000866 -4.25e-05 0 
0.000433 -0.00027125 0 0.000847597 -0.000510625 0 0.000866 -0.00061275 0 
0.000866 -0.00070425 0 0.000866 -0.00079575 0 0.000866 -0.00088725 0 
0.000847597 -0.000989375 0 0.000768358 -0.00105638 0 0.000689119 -0.00110213 0 
0.000609881 -0.00114787 0 0.000530642 -0.00119362 0 0.000433 -0.00122875 0 
0.000335358 -0.00119362 0 0.000256119 -0.00114787 0 0.000176881 -0.00110213 0 
9.76417e-05 -0.00105638 0 2.05259e-05 -0.0010055 0 1.5026e-05 -0.000984974 0 
0 -0.00061275 0 0 -0.00070425 0 0 -0.00079575 0 
0 -0.00088725 0 1.5026e-05 -0.000515026 0 2.05259e-05 -0.0004945 0 
0.000433 -0.0007075 0 0.0003905 -0.00075 0 0.000433 -0.0007925 0 
-1.84031e-05 -0.000510625 0 -1.84031e-05 -0.000989375 0 -9.76417e-05 -0.00105638 0 
-0.000176881 -0.00110213 0 -0.000256119 -0.00114787 0 -0.000335358 -0.00119362 0 
-0.000433 -0.00122875 0 -0.000530642 -0.00119362 0 -0.000609881 -0.00114787 0 
-0.000689119 -0.00110213 0 -0.000768358 -0.00105638 0 -0.000845474 -0.0010055 0 
-0.000850974 -0.000984974 0 -0.000866 -0.00088725 0 -0.000866 -0.00079575 0 
-0.000866 -0.00070425 0 -0.000866 -0.00061275 0 -0.000850974 -0.000515026 0 
-0.000845474 -0.0004945 0 -0.000530642 -0.000306375 0 -0.000609881 -0.000352125 0 
-0.000689119 -0.000397875 0 -0.000768358 -0.000443625 0 -0.000433 -0.00027125 0 
-0.000433 -0.0007075 0 -0.0004755 -0.00075 0 -0.000433 -0.0007925 0 
-0.000451403 -0.000239375 0 -0.000866 -0.00047875 0 -0.000963642 -0.000443625 0 
-0.00104288 -0.000397875 0 -0.00112212 -0.000352125 0 -0.00120136 -0.000306375 0 
-0.00127847 -0.0002555 0 -0.00128397 -0.000234974 0 -0.001299 -0.00013725 0 
-0.001299 -4.575e-05 0 -0.001299 4.575e-05 0 -0.001299 0.00013725 0 
-0.00128397 0.000234974 0 -0.00127847 0.0002555 0 -0.00120136 0.000306375 0 
-0.00112212 0.000352125 0 -0.00104288 0.000397875 0 -0.000963642 0.000443625 0 
-0.000866 0.00047875 0 -0.000530642 0.000306375 0 -0.000609881 0.000352125 0 
-0.000689119 0.000397875 0 -0.000768358 0.000443625 0 -0.000451403 0.000239375 0 
-0.000866 4.25e-05 0 -0.0009085 -3.53397e-19 0 -0.000866 -4.25e-05 0 
-0.000433 0.00027125 0 -0.000845474 0.0004945 0 -0.000850974 0.000515026 0 
-0.000866 0.00061275 0 -0.000866 0.00070425 0 -0.000866 0.00079575 0 
-0.000866 0.00088725 0 -0.000850974 0.000984974 0 -0.000845474 0.0010055 0 
-0.000768358 0.00105638 0 -0.000689119 0.00110213 0 -0.000609881 0.00114787 0 
-0.000530642 0.00119362 0 -0.000433 0.00122875 0 -0.000335358 0.00119362 0 
-0.000256119 0.00114787 0 -0.000176881 0.00110213 0 -9.76417e-05 0.00105638 0 
-1.84031e-05 0.000989375 0 -1.84031e-05 0.000510625 0 -0.000433 0.0007925 0 
-0.0004755 0.00075 0 -0.000433 0.0007075 0 -9.82724e-20 0.00047875 -0.0005 
-0.000335358 0.000306375 -0.0005 -0.000256119 0.000352125 -0.0005 -0.000176881 0.000397875 -0.0005 
-9.76417e-05 0.000443625 -0.0005 -0.000412474 0.0002555 -0.0005 -0.000417974 0.000234974 -0.0005 
-0.000433 -0.00013725 -0.0005 -0.000433 -4.575e-05 -0.0005 -0.000433 4.575e-05 -0.0005 
-0.000433 0.00013725 -0.0005 -0.000417974 -0.000234974 -0.0005 -0.000412474 -0.0002555 -0.0005 
[...]
POINT_DATA 2586
VECTORS displacement float
-9.94508e-10 7.68129e-08 4.80444e-08
5.95625e-09 7.63026e-08 4.80898e-08
-6.40888e-08 4.7756e-08 5.04821e-08
-6.34792e-08 4.55136e-08 5.05051e-08
-6.72935e-08 4.19012e-08 5.19632e-08
-6.73632e-08 -4.19419e-08 5.19686e-08
-6.355e-08 -4.55562e-08 5.05135e-08
-6.41591e-08 -4.77989e-08 5.04911e-08
-1.00026e-09 -7.66609e-08 4.8188e-08
5.93786e-09 -7.63782e-08 4.79621e-08
6.3463e-08 -3.96656e-08 4.79175e-08
6.69216e-08 -3.37174e-08 4.80408e-08
6.70079e-08 3.37594e-08 4.80626e-08
6.35275e-08 3.98054e-08 4.80603e-08
0 0 0
6.51625e-09 7.82732e-08 4.79755e-08
2.9687e-09 8.27536e-08 4.81531e-08
9.89354e-09 1.5302e-07 4.81914e-08
1.28662e-08 1.57942e-07 4.78658e-08
1.24332e-08 1.60591e-07 4.79352e-08
7.07993e-08 1.90912e-07 4.76131e-08
8.00382e-08 1.90641e-07 4.73919e-08
1.37518e-07 1.53364e-07 4.74306e-08
1.41842e-07 1.45235e-07 4.74939e-08
1.37612e-07 7.93983e-08 4.80143e-08
1.32396e-07 7.33561e-08 4.79556e-08
7.0548e-08 3.9609e-08 4.79246e-08
7.48394e-08 1.12373e-07 1.91263e-08
7.09504e-08 3.77215e-08 4.785e-08
1.40334e-07 7.46004e-08 4.81133e-08
1.97875e-07 4.23118e-08 4.74742e-08
2.02497e-07 3.43652e-08 4.75364e-08
2.02446e-07 -3.44352e-08 4.75018e-08
1.97821e-07 -4.23954e-08 4.74464e-08
1.40282e-07 -7.47611e-08 4.78177e-08
1.3239e-07 -7.3319e-08 4.80351e-08
7.04942e-08 -3.97096e-08 4.80534e-08
7.08791e-08 -3.77864e-08 4.79356e-08
1.36834e-07 2.95399e-11 1.90726e-08
1.37585e-07 -7.94015e-08 4.80164e-08
1.41819e-07 -1.45289e-07 4.7551e-08
1.3748e-07 -1.53404e-07 4.74826e-08
7.99877e-08 -1.90631e-07 4.73858e-08
7.07481e-08 -1.90904e-07 4.76087e-08
1.23733e-08 -1.60562e-07 4.79229e-08
1.28044e-08 -1.57912e-07 4.78527e-08
9.81598e-09 -1.52983e-07 4.81703e-08
2.98798e-09 -8.27001e-08 4.8177e-08
6.51486e-09 -7.83151e-08 4.78914e-08
7.47598e-08 -1.12933e-07 1.9128e-08
7.84568e-09 -1.60807e-07 4.81132e-08
-4.12372e-08 -2.04695e-07 4.75969e-08
-5.0456e-08 -2.05848e-07 4.78121e-08
-1.16891e-07 -1.85133e-07 4.77683e-08
-1.16959e-07 -1.82406e-07 4.76963e-08
-1.22817e-07 -1.77376e-07 4.7922e-08
-1.42414e-07 -1.12307e-07 5.11912e-08
-1.39448e-07 -1.06224e-07 5.21387e-08
-1.41107e-07 -1.04338e-07 5.28151e-08
-7.14008e-08 -4.92981e-08 5.19749e-08
-5.48061e-08 -1.24826e-07 1.92925e-08
-1.51e-07 -1.07362e-07 5.448e-08
-2.50108e-07 -6.16119e-08 5.77005e-08
-2.49566e-07 -5.90371e-08 5.76926e-08
-2.54869e-07 -5.39833e-08 5.77456e-08
-2.54857e-07 5.39606e-08 5.7746e-08
-2.49552e-07 5.90135e-08 5.76931e-08
-2.50093e-07 6.15887e-08 5.7701e-08
-1.50823e-07 1.07298e-07 5.4413e-08
-1.41232e-07 1.04289e-07 5.29041e-08
-7.13389e-08 4.92479e-08 5.19689e-08
-1.50017e-07 -1.67543e-11 5.44536e-08
-1.39547e-07 1.06175e-07 5.22079e-08
-1.42472e-07 1.1227e-07 5.12303e-08
-1.2274e-07 1.77324e-07 4.79243e-08
-1.16884e-07 1.82352e-07 4.76999e-08
-1.16816e-07 1.8508e-07 4.77721e-08
-5.07544e-08 2.05802e-07 4.76086e-08
-4.15369e-08 2.0471e-07 4.78258e-08
7.90793e-09 1.60835e-07 4.81385e-08
-5.47635e-08 1.24968e-07 1.92823e-08
-9.94508e-10 7.68129e-08 -4.80444e-08
5.95625e-09 7.63026e-08 -4.80898e-08
-6.40888e-08 4.7756e-08 -5.04821e-08
-6.34792e-08 4.55136e-08 -5.05051e-08
-6.72935e-08 4.19012e-08 -5.19632e-08
-6.73632e-08 -4.19419e-08 -5.19686e-08
-6.355e-08 -4.55562e-08 -5.05135e-08
-6.41591e-08 -4.77989e-08 -5.04911e-08
-1.00026e-09 -7.66609e-08 -4.8188e-08
5.93786e-09 -7.63782e-08 -4.79621e-08
6.3463e-08 -3.96656e-08 -4.79175e-08
6.69216e-08 -3.37174e-08 -4.80408e-08
6.70079e-08 3.37594e-08 -4.80626e-08
6.35275e-08 3.98054e-08 -4.80603e-08
0 0 0
6.51625e-09 7.82732e-08 -4.79755e-08
2.9687e-09 8.27536e-08 -4.81531e-08
9.89354e-09 1.5302e-07 -4.81914e-08
1.28662e-08 1.57942e-07 -4.78658e-08
1.24332e-08 1.60591e-07 -4.79352e-08
7.07993e-08 1.90912e-07 -4.76131e-08
8.00382e-08 1.90641e-07 -4.73919e-08
1.37518e-07 1.53364e-07 -4.74306e-08
1.41842e-07 1.45235e-07 -4.74939e-08
1.37612e-07 7.93983e-08 -4.80143e-08
1.32396e-07 7.33561e-08 -4.79556e-08
7.0548e-08 3.9609e-08 -4.79246e-08
7.48394e-08 1.12373e-07 -1.91263e-08
7.09504e-08 3.77215e-08 -4.785e-08
1.40334e-07 7.46004e-08 -4.81133e-08
1.97875e-07 4.23118e-08 -4.74742e-08
2.02497e-07 3.43652e-08 -4.75364e-08
2.02446e-07 -3.44352e-08 -4.75018e-08
1.97821e-07 -4.23954e-08 -4.74464e-08
1.40282e-07 -7.47611e-08 -4.78177e-08
1.3239e-07 -7.3319e-08 -4.80351e-08
7.04942e-08 -3.97096e-08 -4.80534e-08
7.08791e-08 -3.77864e-08 -4.79356e-08
1.36834e-07 2.95399e-11 -1.90726e-08
1.37585e-07 -7.94015e-08 -4.80164e-08
1.41819e-07 -1.45289e-07 -4.7551e-08
1.3748e-07 -1.53404e-07 -4.74826e-08
7.99877e-08 -1.90631e-07 -4.73858e-08
7.07481e-08 -1.90904e-07 -4.76087e-08
1.23733e-08 -1.60562e-07 -4.79229e-08
1.28044e-08 -1.57912e-07 -4.78527e-08
9.81598e-09 -1.52983e-07 -4.81703e-08
2.98798e-09 -8.27001e-08 -4.8177e-08
6.51486e-09 -7.83151e-08 -4.78914e-08
7.47598e-08 -1.12933e-07 -1.9128e-08
7.84568e-09 -1.60807e-07 -4.81132e-08
-4.12372e-08 -2.04695e-07 -4.75969e-08
-5.0456e-08 -2.05848e-07 -4.78121e-08
-1.16891e-07 -1.85133e-07 -4.77683e-08
-1.16959e-07 -1.82406e-07 -4.76963e-08
-1.22817e-07 -1.77376e-07 -4.7922e-08
-1.42414e-07 -1.12307e-07 -5.11912e-08
-1.39448e-07 -1.06224e-07 -5.21387e-08
-1.41107e-07 -1.04338e-07 -5.28151e-08
-7.14008e-08 -4.92981e-08 -5.19749e-08
-5.48061e-08 -1.24826e-07 -1.92925e-08
-1.51e-07 -1.07362e-07 -5.448e-08
-2.50108e-07 -6.16119e-08 -5.77005e-08
-2.49566e-07 -5.90371e-08 -5.76926e-08
-2.54869e-07 -5.39833e-08 -5.77456e-08
-2.54857e-07 5.39606e-08 -5.7746e-08
-2.49552e-07 5.90135e-08 -5.76931e-08
-2.50093e-07 6.15887e-08 -5.7701e-08
-1.50823e-07 1.07298e-07 -5.4413e-08
-1.41232e-07 1.04289e-07 -5.29041e-08
-7.13389e-08 4.92479e-08 -5.19689e-08
-1.50017e-07 -1.67543e-11 -5.44536e-08
-1.39547e-07 1.06175e-07 -5.22079e-08
-1.42472e-07 1.1227e-07 -5.12303e-08
-1.2274e-07 1.77324e-07 -4.79243e-08
-1.16884e-07 1.82352e-07 -4.76999e-08
-1.16816e-07 1.8508e-07 -4.77721e-08
-5.07544e-08 2.05802e-07 -4.76086e-08
-4.15369e-08 2.0471e-07 -4.78258e-08
7.90793e-09 1.60835e-07 -4.81385e-08
-5.47635e-08 1.24968e-07 -1.92823e-08
2.41063e-09 7.47723e-08 4.78572e-08
-4.92685e-08 5.47096e-08 4.63244e-08
-3.76377e-08 5.96691e-08 4.30115e-08
-2.68846e-08 6.43659e-08 4.26277e-08
-1.55129e-08 6.95057e-08 4.51041e-08
-6.35876e-08 4.6606e-08 5.05126e-08
-6.4582e-08 4.28449e-08 5.10399e-08
-6.74449e-08 -2.36527e-08 5.04871e-08
-6.71923e-08 -7.70796e-09 4.91917e-08
-6.71592e-08 7.67618e-09 4.9145e-08
-6.74017e-08 2.36141e-08 5.05018e-08
-6.46525e-08 -4.28867e-08 5.10465e-08
-6.36584e-08 -4.66488e-08 5.05215e-08
-1.54913e-08 -6.95132e-08 4.50894e-08
-2.69294e-08 -6.43442e-08 4.27708e-08
-3.77047e-08 -5.9683e-08 4.30365e-08
-4.93394e-08 -5.47436e-08 4.63383e-08
2.34017e-09 -7.47282e-08 4.78657e-08
4.97187e-08 -4.799e-08 4.47764e-08
3.93099e-08 -5.4331e-08 4.20167e-08
2.97324e-08 -6.04973e-08 4.20235e-08
1.94721e-08 -6.72142e-08 4.48129e-08
6.34772e-08 -3.57898e-08 4.78542e-08
6.64398e-08 1.77595e-08 4.47406e-08
6.63365e-08 5.61338e-09 4.20635e-08
6.62922e-08 -5.60624e-09 4.21657e-08
6.64285e-08 -1.77329e-08 4.47005e-08
6.3564e-08 3.58745e-08 4.79191e-08
1.94755e-08 6.73019e-08 4.47745e-08
2.97681e-08 6.05631e-08 4.21546e-08
3.93765e-08 5.44166e-08 4.21533e-08
4.98169e-08 4.79943e-08 4.47553e-08
0 0 0
0 0 0
0 0 0
6.47685e-09 7.73387e-08 4.80971e-08
5.36025e-09 8.10187e-08 4.7891e-08
3.9614e-09 9.9048e-08 4.48855e-08
5.30448e-09 1.11536e-07 4.2399e-08
6.75525e-09 1.232e-07 4.23118e-08
8.15557e-09 1.35987e-07 4.49534e-08
1.18875e-08 1.54605e-07 4.78802e-08
1.2755e-08 1.5929e-07 4.79532e-08
2.85567e-08 1.643e-07 4.50864e-08
3.98127e-08 1.66386e-07 4.28249e-08
4.86963e-08 1.71155e-07 4.28435e-08
5.76822e-08 1.79337e-07 4.48505e-08
7.51602e-08 1.88737e-07 4.73097e-08
9.2263e-08 1.7798e-07 4.49154e-08
1.00794e-07 1.68625e-07 4.25981e-08
1.0948e-07 1.62821e-07 4.26431e-08
1.20988e-07 1.59109e-07 4.47424e-08
1.37906e-07 1.48231e-07 4.7346e-08
1.37009e-07 1.28081e-07 4.479e-08
1.32787e-07 1.16388e-07 4.29213e-08
1.31973e-07 1.06227e-07 4.28405e-08
1.3427e-07 9.50451e-08 4.51807e-08
1.33283e-07 7.71818e-08 4.78701e-08
8.48343e-08 4.7662e-08 4.48425e-08
9.5793e-08 5.34705e-08 4.20963e-08
1.06093e-07 5.89932e-08 4.21319e-08
1.17403e-07 6.50512e-08 4.48699e-08
6.70726e-08 4.13924e-08 4.77898e-08
7.14982e-08 1.17541e-07 1.94066e-08
6.59729e-08 1.13087e-07 1.91873e-08
7.01129e-08 1.08268e-07 1.89349e-08
6.95286e-08 3.52348e-08 4.78042e-08
7.10069e-08 3.85943e-08 4.79492e-08
1.36118e-07 7.21258e-08 4.78214e-08
1.51812e-07 6.32909e-08 4.51705e-08
1.60122e-07 5.51681e-08 4.29797e-08
1.6903e-07 5.02213e-08 4.27708e-08
1.80928e-07 4.73221e-08 4.4804e-08
1.98454e-07 3.7188e-08 4.73923e-08
1.98494e-07 1.7185e-08 4.48279e-08
1.95346e-07 5.16508e-09 4.26363e-08
1.95202e-07 -5.37022e-09 4.28211e-08
1.98499e-07 -1.7233e-08 4.47625e-08
1.98408e-07 -3.72616e-08 4.73587e-08
1.80859e-07 -4.74096e-08 4.47991e-08
1.6895e-07 -5.02863e-08 4.27631e-08
1.60032e-07 -5.51256e-08 4.28132e-08
1.51738e-07 -6.33014e-08 4.52573e-08
1.35892e-07 -7.22728e-08 4.77357e-08
8.47508e-08 -4.7618e-08 4.48098e-08
9.57307e-08 -5.34768e-08 4.22359e-08
1.06049e-07 -5.90031e-08 4.22572e-08
1.17365e-07 -6.50616e-08 4.4809e-08
7.09414e-08 -3.86791e-08 4.80613e-08
6.94401e-08 -3.52374e-08 4.7819e-08
1.32579e-07 4.2362e-09 1.92333e-08
1.27287e-07 2.97841e-10 1.93727e-08
1.32119e-07 -4.48061e-09 1.92619e-08
6.70924e-08 -4.13643e-08 4.77837e-08
1.33262e-07 -7.71685e-08 4.78854e-08
1.34266e-07 -9.50743e-08 4.51153e-08
1.31808e-07 -1.06146e-07 4.30379e-08
1.32895e-07 -1.16265e-07 4.27442e-08
1.36951e-07 -1.2814e-07 4.4874e-08
1.37872e-07 -1.48277e-07 4.74032e-08
1.20924e-07 -1.59091e-07 4.47888e-08
1.09405e-07 -1.62824e-07 4.26635e-08
1.00723e-07 -1.68608e-07 4.25678e-08
9.22078e-08 -1.77966e-07 4.48998e-08
7.51089e-08 -1.88728e-07 4.73044e-08
5.76233e-08 -1.79332e-07 4.48537e-08
4.86336e-08 -1.71131e-07 4.28502e-08
3.97594e-08 -1.6635e-07 4.28276e-08
2.85068e-08 -1.64268e-07 4.50826e-08
1.26945e-08 -1.5926e-07 4.79408e-08
1.1819e-08 -1.54572e-07 4.78634e-08
3.92378e-09 -9.90158e-08 4.49257e-08
5.30829e-09 -1.11536e-07 4.23014e-08
6.67674e-09 -1.23188e-07 4.24121e-08
8.13191e-09 -1.3596e-07 4.49165e-08
5.37774e-09 -8.10042e-08 4.78781e-08
6.46976e-09 -7.73993e-08 4.79863e-08
7.04326e-08 -1.08031e-07 1.93311e-08
6.59249e-08 -1.12827e-07 1.91863e-08
7.1083e-08 -1.17329e-07 1.90144e-08
-5.8919e-10 -8.07422e-08 4.80721e-08
7.17339e-09 -1.55843e-07 4.80346e-08
-6.38099e-09 -1.66937e-07 4.53279e-08
-1.59427e-08 -1.71692e-07 4.30995e-08
-2.3047e-08 -1.79018e-07 4.29455e-08
-3.02279e-08 -1.90176e-07 4.51773e-08
-4.63607e-08 -2.03232e-07 4.75138e-08
-6.46157e-08 -1.96202e-07 4.50697e-08
-7.4753e-08 -1.9005e-07 4.30667e-08
-8.50565e-08 -1.87335e-07 4.29958e-08
-9.82324e-08 -1.87155e-07 4.51129e-08
-1.1675e-07 -1.83772e-07 4.77847e-08
-1.1927e-07 -1.78903e-07 4.76718e-08
-1.2171e-07 -1.6029e-07 4.54578e-08
-1.21697e-07 -1.48728e-07 4.38603e-08
-1.25215e-07 -1.38698e-07 4.44454e-08
-1.32543e-07 -1.27859e-07 4.72358e-08
-1.39574e-07 -1.09522e-07 5.12252e-08
-1.40112e-07 -1.05213e-07 5.25507e-08
-8.6498e-08 -6.05705e-08 5.06752e-08
-9.97032e-08 -7.07437e-08 4.94567e-08
-1.12675e-07 -8.07297e-08 4.95196e-08
-1.26237e-07 -9.12514e-08 5.10603e-08
-6.78081e-08 -5.05219e-08 5.08571e-08
-5.99436e-08 -1.21324e-07 1.99419e-08
-6.41823e-08 -1.28052e-07 1.99472e-08
-5.84896e-08 -1.31e-07 1.93765e-08
-7.10128e-08 -4.49095e-08 5.23662e-08
-1.46854e-07 -1.03793e-07 5.39431e-08
-1.72174e-07 -9.93592e-08 5.53623e-08
-1.92069e-07 -9.04627e-08 5.58495e-08
-2.11484e-07 -8.11305e-08 5.64129e-08
-2.30713e-07 -7.1521e-08 5.71175e-08
-2.49665e-07 -6.03667e-08 5.7705e-08
-2.51239e-07 -5.54373e-08 5.77015e-08
-2.55239e-07 -3.2222e-08 5.7419e-08
-2.55435e-07 -1.07397e-08 5.71763e-08
-2.55435e-07 1.07126e-08 5.71748e-08
-2.55233e-07 3.21962e-08 5.74192e-08
-2.51227e-07 5.54137e-08 5.7702e-08
-2.49651e-07 6.03433e-08 5.77055e-08
-2.30691e-07 7.14921e-08 5.71183e-08
-2.11457e-07 8.10874e-08 5.64083e-08
-1.92057e-07 9.04282e-08 5.58257e-08
-1.7217e-07 9.93673e-08 5.53729e-08
-1.46666e-07 1.03726e-07 5.38968e-08
-8.64419e-08 6.0504e-08 5.06753e-08
-9.96551e-08 7.06657e-08 4.94672e-08
-1.12633e-07 8.06471e-08 4.95762e-08
-1.26195e-07 9.11972e-08 5.10596e-08
-7.09589e-08 4.48626e-08 5.23622e-08
-1.58881e-07 9.10515e-09 5.4886e-08
-1.68025e-07 -9.51566e-12 5.53612e-08
-1.5887e-07 -9.14085e-09 5.49074e-08
-6.77416e-08 5.04751e-08 5.08488e-08
-1.40229e-07 1.05159e-07 5.26312e-08
-1.39639e-07 1.09479e-07 5.12699e-08
-1.32566e-07 1.27817e-07 4.72588e-08
-1.25208e-07 1.38694e-07 4.44521e-08
-1.2165e-07 1.48719e-07 4.38744e-08
-1.21645e-07 1.60247e-07 4.54589e-08
-1.19194e-07 1.78851e-07 4.76746e-08
-1.16675e-07 1.83718e-07 4.77885e-08
-9.81645e-08 1.87084e-07 4.51241e-08
-8.499e-08 1.87262e-07 4.29935e-08
-7.47234e-08 1.89836e-07 4.29032e-08
-6.45854e-08 1.96114e-07 4.51772e-08
-4.628e-08 2.03216e-07 4.75265e-08
-3.02062e-08 1.90215e-07 4.50952e-08
-2.30212e-08 1.79204e-07 4.31288e-08
-1.58853e-08 1.71757e-07 4.3127e-08
-6.30901e-09 1.66972e-07 4.53465e-08
7.22685e-09 1.55875e-07 4.80624e-08
-6.10373e-10 8.0837e-08 4.80047e-08
-5.79384e-08 1.31158e-07 1.96894e-08
-6.41356e-08 1.27411e-07 1.99547e-08
-6.03769e-08 1.21515e-07 1.96235e-08
2.41063e-09 7.47723e-08 -4.78572e-08
-4.92685e-08 5.47096e-08 -4.63244e-08
-3.76377e-08 5.96691e-08 -4.30115e-08
-2.68846e-08 6.43659e-08 -4.26277e-08
-1.55129e-08 6.95057e-08 -4.51041e-08
-6.35876e-08 4.6606e-08 -5.05126e-08
-6.4582e-08 4.28449e-08 -5.10399e-08
-6.74449e-08 -2.36527e-08 -5.04871e-08
-6.71923e-08 -7.70796e-09 -4.91917e-08
-6.71592e-08 7.67618e-09 -4.9145e-08
-6.74017e-08 2.36141e-08 -5.05018e-08
-6.46525e-08 -4.28867e-08 -5.10465e-08
-6.36584e-08 -4.66488e-08 -5.05215e-08
-1.54913e-08 -6.95132e-08 -4.50894e-08
-2.69294e-08 -6.43442e-08 -4.27708e-08
-3.77047e-08 -5.9683e-08 -4.30365e-08
-4.93394e-08 -5.47436e-08 -4.63383e-08
2.34017e-09 -7.47282e-08 -4.78657e-08
4.97187e-08 -4.799e-08 -4.47764e-08
3.93099e-08 -5.4331e-08 -4.20167e-08
2.97324e-08 -6.04973e-08 -4.20235e-08
1.94721e-08 -6.72142e-08 -4.48129e-08
6.34772e-08 -3.57898e-08 -4.78542e-08
6.64398e-08 1.77595e-08 -4.47406e-08
6.63365e-08 5.61338e-09 -4.20635e-08
6.62922e-08 -5.60624e-09 -4.21657e-08
6.64285e-08 -1.77329e-08 -4.47005e-08
6.3564e-08 3.58745e-08 -4.79191e-08
1.94755e-08 6.73019e-08 -4.47745e-08
2.97681e-08 6.05631e-08 -4.21546e-08
3.93765e-08 5.44166e-08 -4.21533e-08
4.98169e-08 4.79943e-08 -4.47553e-08
0 0 0
0 0 0
0 0 0
6.47685e-09 7.73387e-08 -4.80971e-08
5.36025e-09 8.10187e-08 -4.7891e-08
3.9614e-09 9.9048e-08 -4.48855e-08
5.30448e-09 1.11536e-07 -4.2399e-08
6.75525e-09 1.232e-07 -4.23118e-08
8.15557e-09 1.35987e-07 -4.49534e-08
1.18875e-08 1.54605e-07 -4.78802e-08
1.2755e-08 1.5929e-07 -4.79532e-08
2.85567e-08 1.643e-07 -4.50864e-08
3.98127e-08 1.66386e-07 -4.28249e-08
4.86963e-08 1.71155e-07 -4.28435e-08
5.76822e-08 1.79337e-07 -4.48505e-08
7.51602e-08 1.88737e-07 -4.73097e-08
9.2263e-08 1.7798e-07 -4.49154e-08
1.00794e-07 1.68625e-07 -4.25981e-08
1.0948e-07 1.62821e-07 -4.26431e-08
1.20988e-07 1.59109e-07 -4.47424e-08
1.37906e-07 1.48231e-07 -4.7346e-08
1.37009e-07 1.28081e-07 -4.479e-08
1.32787e-07 1.16388e-07 -4.29213e-08
1.31973e-07 1.06227e-07 -4.28405e-08
1.3427e-07 9.50451e-08 -4.51807e-08
1.33283e-07 7.71818e-08 -4.78701e-08
8.48343e-08 4.7662e-08 -4.48425e-08
9.5793e-08 5.34705e-08 -4.20963e-08
1.06093e-07 5.89932e-08 -4.21319e-08
1.17403e-07 6.50512e-08 -4.48699e-08
6.70726e-08 4.13924e-08 -4.77898e-08
7.14982e-08 1.17541e-07 -1.94066e-08
6.59729e-08 1.13087e-07 -1.91873e-08
7.01129e-08 1.08268e-07 -1.89349e-08
6.95286e-08 3.52348e-08 -4.78042e-08
7.10069e-08 3.85943e-08 -4.79492e-08
1.36118e-07 7.21258e-08 -4.78214e-08
1.51812e-07 6.32909e-08 -4.51705e-08
1.60122e-07 5.51681e-08 -4.29797e-08
1.6903e-07 5.02213e-08 -4.27708e-08
1.80928e-07 4.73221e-08 -4.4804e-08
1.98454e-07 3.7188e-08 -4.73923e-08
1.98494e-07 1.7185e-08 -4.48279e-08
1.95346e-07 5.16508e-09 -4.26363e-08
1.95202e-07 -5.37022e-09 -4.28211e-08
1.98499e-07 -1.7233e-08 -4.47625e-08
1.98408e-07 -3.72616e-08 -4.73587e-08
1.80859e-07 -4.74096e-08 -4.47991e-08
1.6895e-07 -5.02863e-08 -4.27631e-08
1.60032e-07 -5.51256e-08 -4.28132e-08
1.51738e-07 -6.33014e-08 -4.52573e-08
1.35892e-07 -7.22728e-08 -4.77357e-08
8.47508e-08 -4.7618e-08 -4.48098e-08
9.57307e-08 -5.34768e-08 -4.22359e-08
1.06049e-07 -5.90031e-08 -4.22572e-08
1.17365e-07 -6.50616e-08 -4.4809e-08
7.09414e-08 -3.86791e-08 -4.80613e-08
6.94401e-08 -3.52374e-08 -4.7819e-08
1.32579e-07 4.2362e-09 -1.92333e-08
1.27287e-07 2.97841e-10 -1.93727e-08
1.32119e-07 -4.48061e-09 -1.92619e-08
6.70924e-08 -4.13643e-08 -4.77837e-08
1.33262e-07 -7.71685e-08 -4.78854e-08
1.34266e-07 -9.50743e-08 -4.51153e-08
1.31808e-07 -1.06146e-07 -4.30379e-08
1.32895e-07 -1.16265e-07 -4.27442e-08
1.36951e-07 -1.2814e-07 -4.4874e-08
1.37872e-07 -1.48277e-07 -4.74032e-08
1.20924e-07 -1.59091e-07 -4.47888e-08
1.09405e-07 -1.62824e-07 -4.26635e-08
1.00723e-07 -1.68608e-07 -4.25678e-08
9.22078e-08 -1.77966e-07 -4.48998e-08
7.51089e-08 -1.88728e-07 -4.73044e-08
5.76233e-08 -1.79332e-07 -4.48537e-08
4.86336e-08 -1.71131e-07 -4.28502e-08
3.97594e-08 -1.6635e-07 -4.28276e-08
2.85068e-08 -1.64268e-07 -4.50826e-08
1.26945e-08 -1.5926e-07 -4.79408e-08
1.1819e-08 -1.54572e-07 -4.78634e-08
3.92378e-09 -9.90158e-08 -4.49257e-08
5.30829e-09 -1.11536e-07 -4.23014e-08
6.67674e-09 -1.23188e-07 -4.24121e-08
8.13191e-09 -1.3596e-07 -4.49165e-08
5.37774e-09 -8.10042e-08 -4.78781e-08
6.46976e-09 -7.73993e-08 -4.79863e-08
7.04326e-08 -1.08031e-07 -1.93311e-08
6.59249e-08 -1.12827e-07 -1.91863e-08
7.1083e-08 -1.17329e-07 -1.90144e-08
-5.8919e-10 -8.07422e-08 -4.80721e-08
7.17339e-09 -1.55843e-07 -4.80346e-08
-6.38099e-09 -1.66937e-07 -4.53279e-08
-1.59427e-08 -1.71692e-07 -4.30995e-08
-2.3047e-08 -1.79018e-07 -4.29455e-08
-3.02279e-08 -1.90176e-07 -4.51773e-08
-4.63607e-08 -2.03232e-07 -4.75138e-08
-6.46157e-08 -1.96202e-07 -4.50697e-08
-7.4753e-08 -1.9005e-07 -4.30667e-08
-8.50565e-08 -1.87335e-07 -4.29958e-08
-9.82324e-08 -1.87155e-07 -4.51129e-08
-1.1675e-07 -1.83772e-07 -4.77847e-08
-1.1927e-07 -1.78903e-07 -4.76718e-08
-1.2171e-07 -1.6029e-07 -4.54578e-08
-1.21697e-07 -1.48728e-07 -4.38603e-08
-1.25215e-07 -1.38698e-07 -4.44454e-08
-1.32543e-07 -1.27859e-07 -4.72358e-08
-1.39574e-07 -1.09522e-07 -5.12252e-08
-1.40112e-07 -1.05213e-07 -5.25507e-08
-8.6498e-08 -6.05705e-08 -5.06752e-08
-9.97032e-08 -7.07437e-08 -4.94567e-08
-1.12675e-07 -8.07297e-08 -4.95196e-08
-1.26237e-07 -9.12514e-08 -5.10603e-08
-6.78081e-08 -5.05219e-08 -5.08571e-08
-5.99436e-08 -1.21324e-07 -1.99419e-08
-6.41823e-08 -1.28052e-07 -1.99472e-08
-5.84896e-08 -1.31e-07 -1.93765e-08
-7.10128e-08 -4.49095e-08 -5.23662e-08
-1.46854e-07 -1.03793e-07 -5.39431e-08
-1.72174e-07 -9.93592e-08 -5.53623e-08
-1.92069e-07 -9.04627e-08 -5.58495e-08
-2.11484e-07 -8.11305e-08 -5.64129e-08
-2.30713e-07 -7.1521e-08 -5.71175e-08
-2.49665e-07 -6.03667e-08 -5.7705e-08
-2.51239e-07 -5.54373e-08 -5.77015e-08
-2.55239e-07 -3.2222e-08 -5.7419e-08
-2.55435e-07 -1.07397e-08 -5.71763e-08
-2.55435e-07 1.07126e-08 -5.71748e-08
-2.55233e-07 3.21962e-08 -5.74192e-08
-2.51227e-07 5.54137e-08 -5.7702e-08
-2.49651e-07 6.03433e-08 -5.77055e-08
-2.30691e-07 7.14921e-08 -5.71183e-08
-2.11457e-07 8.10874e-08 -5.64083e-08
-1.92057e-07 9.04282e-08 -5.58257e-08
-1.7217e-07 9.93673e-08 -5.53729e-08
-1.46666e-07 1.03726e-07 -5.38968e-08
-8.64419e-08 6.0504e-08 -5.06753e-08
-9.96551e-08 7.06657e-08 -4.94672e-08
-1.12633e-07 8.06471e-08 -4.95762e-08
-1.26195e-07 9.11972e-08 -5.10596e-08
-7.09589e-08 4.48626e-08 -5.23622e-08