# vtk DataFile Version 3.0
vtk output at time 0.4
ASCII
DATASET UNSTRUCTURED_GRID
POINTS 2586 float
-1.84029e-05 0.000489375 0 1.84029e-05 0.000489375 0 -0.000414597 0.000260625 0 
-0.00041175 0.00025 0 -0.000433 0.00022875 0 -0.000433 -0.00022875 0 
-0.00041175 -0.00025 0 -0.000414597 -0.000260625 0 -1.84029e-05 -0.000489375 0 
1.84029e-05 -0.000489375 0 0.000414597 -0.000260625 0 0.000433 -0.00022875 0 
0.000433 0.00022875 0 0.000414597 0.000260625 0 4.25e-05 0 0 
2.125e-05 0.0005 0 5.90898e-17 0.00052125 0 5.90919e-17 0.00097875 0 
2.125e-05 0.001 0 1.84029e-05 0.00101063 0 0.000414597 0.00123937 0 
0.000451403 0.00123937 0 0.000847597 0.00101063 0 0.000866 0.00097875 0 
0.000866 0.00052125 0 0.000847597 0.000489375 0 0.000451403 0.000260625 0 
0.0004755 0.00075 0 0.00045425 0.00025 0 0.000884403 0.000489375 0 
0.0012806 0.000260625 0 0.001299 0.00022875 0 0.001299 -0.00022875 0 
0.0012806 -0.000260625 0 0.000884403 -0.000489375 0 0.000847597 -0.000489375 0 
0.000451403 -0.000260625 0 0.00045425 -0.00025 0 0.0009085 0 0 
0.000866 -0.00052125 0 0.000866 -0.00097875 0 0.000847597 -0.00101063 0 
0.000451403 -0.00123937 0 0.000414597 -0.00123937 0 1.84029e-05 -0.00101063 0 
2.125e-05 -0.001 0 5.90898e-17 -0.00097875 0 5.90919e-17 -0.00052125 0 
2.125e-05 -0.0005 0 0.0004755 -0.00075 0 -1.84029e-05 -0.00101063 0 
-0.000414597 -0.00123937 0 -0.000451403 -0.00123937 0 -0.000847597 -0.00101063 0 
-0.00084475 -0.001 0 -0.000866 -0.00097875 0 -0.000866 -0.00052125 0 
-0.00084475 -0.0005 0 -0.000847597 -0.000489375 0 -0.000451403 -0.000260625 0 
-0.0003905 -0.00075 0 -0.000884403 -0.000489375 0 -0.0012806 -0.000260625 0 
-0.00127775 -0.00025 0 -0.001299 -0.00022875 0 -0.001299 0.00022875 0 
-0.00127775 0.00025 0 -0.0012806 0.000260625 0 -0.000884403 0.000489375 0 
-0.000847597 0.000489375 0 -0.000451403 0.000260625 0 -0.0008235 0 0 
-0.00084475 0.0005 0 -0.000866 0.00052125 0 -0.000866 0.00097875 0 
-0.00084475 0.001 0 -0.000847597 0.00101063 0 -0.000451403 0.00123937 0 
-0.000414597 0.00123937 0 -1.84029e-05 0.00101063 0 -0.0003905 0.00075 0 
-1.84029e-05 0.000489375 -0.0005 1.84029e-05 0.000489375 -0.0005 -0.000414597 0.000260625 -0.0005 
-0.00041175 0.00025 -0.0005 -0.000433 0.00022875 -0.0005 -0.000433 -0.00022875 -0.0005 
-0.00041175 -0.00025 -0.0005 -0.000414597 -0.000260625 -0.0005 -1.84029e-05 -0.000489375 -0.0005 
1.84029e-05 -0.000489375 -0.0005 0.000414597 -0.000260625 -0.0005 0.000433 -0.00022875 -0.0005 
0.000433 0.00022875 -0.0005 0.000414597 0.000260625 -0.0005 4.25e-05 0 -0.0005 
2.125e-05 0.0005 -0.0005 5.90898e-17 0.00052125 -0.0005 5.90919e-17 0.00097875 -0.0005 
2.125e-05 0.001 -0.0005 1.84029e-05 0.00101063 -0.0005 0.000414597 0.00123937 -0.0005 
0.000451403 0.00123937 -0.0005 0.000847597 0.00101063 -0.0005 0.000866 0.00097875 -0.0005 
0.000866 0.00052125 -0.0005 0.000847597 0.000489375 -0.0005 0.000451403 0.000260625 -0.0005 
0.0004755 0.00075 -0.0005 0.00045425 0.00025 -0.0005 0.000884403 0.000489375 -0.0005 
0.0012806 0.000260625 -0.0005 0.001299 0.00022875 -0.0005 0.001299 -0.00022875 -0.0005 
0.0012806 -0.000260625 -0.0005 0.000884403 -0.000489375 -0.0005 0.000847597 -0.000489375 -0.0005 
0.000451403 -0.000260625 -0.0005 0.00045425 -0.00025 -0.0005 0.0009085 0 -0.0005 
0.000866 -0.00052125 -0.0005 0.000866 -0.00097875 -0.0005 0.000847597 -0.00101063 -0.0005 
0.000451403 -0.00123937 -0.0005 0.000414597 -0.00123937 -0.0005 1.84029e-05 -0.00101063 -0.0005 
2.125e-05 -0.001 -0.0005 5.90898e-17 -0.00097875 -0.0005 5.90919e-17 -0.00052125 -0.0005 
2.125e-05 -0.0005 -0.0005 0.0004755 -0.00075 -0.0005 -1.84029e-05 -0.00101063 -0.0005 
-0.000414597 -0.00123937 -0.0005 -0.000451403 -0.00123937 -0.0005 -0.000847597 -0.00101063 -0.0005 
-0.00084475 -0.001 -0.0005 -0.000866 -0.00097875 -0.0005 -0.000866 -0.00052125 -0.0005 
-0.00084475 -0.0005 -0.0005 -0.000847597 -0.000489375 -0.0005 -0.000451403 -0.000260625 -0.0005 
-0.0003905 -0.00075 -0.0005 -0.000884403 -0.000489375 -0.0005 -0.0012806 -0.000260625 -0.0005 
-0.00127775 -0.00025 -0.0005 -0.001299 -0.00022875 -0.0005 -0.001299 0.00022875 -0.0005 
-0.00127775 0.00025 -0.0005 -0.0012806 0.000260625 -0.0005 -0.000884403 0.000489375 -0.0005 
-0.000847597 0.000489375 -0.0005 -0.000451403 0.000260625 -0.0005 -0.0008235 0 -0.0005 
-0.00084475 0.0005 -0.0005 -0.000866 0.00052125 -0.0005 -0.000866 0.00097875 -0.0005 
-0.00084475 0.001 -0.0005 -0.000847597 0.00101063 -0.0005 -0.000451403 0.00123937 -0.0005 
-0.000414597 0.00123937 -0.0005 -1.84029e-05 0.00101063 -0.0005 -0.0003905 0.00075 -0.0005 
-9.82724e-20 0.00047875 0 -0.000335358 0.000306375 0 -0.000256119 0.000352125 0 
-0.000176881 0.000397875 0 -9.76417e-05 0.000443625 0 -0.000412474 0.0002555 0 
-0.000417974 0.000234974 0 -0.000433 -0.00013725 0 -0.000433 -4.575e-05 0 
-0.000433 4.575e-05 0 -0.000433 0.00013725 0 -0.000417974 -0.000234974 0 
-0.000412474 -0.0002555 0 -9.76417e-05 -0.000443625 0 -0.000176881 -0.000397875 0 
-0.000256119 -0.000352125 0 -0.000335358 -0.000306375 0 -1.07223e-19 -0.00047875 0 
0.000335358 -0.000306375 0 0.000256119 -0.000352125 0 0.000176881 -0.000397875 0 
9.76417e-05 -0.000443625 0 0.000414597 -0.000239375 0 0.000433 0.00013725 0 
0.000433 4.575e-05 0 0.000433 -4.575e-05 0 0.000433 -0.00013725 0 
0.000414597 0.000239375 0 9.76417e-05 0.000443625 0 0.000176881 0.000397875 0 
0.000256119 0.000352125 0 0.000335358 0.000306375 0 -1.29514e-19 4.25e-05 0 
-4.25e-05 -3.53397e-19 0 4.07417e-19 -4.25e-05 0 2.05259e-05 0.0004945 0 
1.5026e-05 0.000515026 0 0 0.00061275 0 0 0.00070425 0 
0 0.00079575 0 0 0.00088725 0 1.5026e-05 0.000984974 0 
2.05259e-05 0.0010055 0 9.76417e-05 0.00105638 0 0.000176881 0.00110213 0 
0.000256119 0.00114787 0 0.000335358 0.00119362 0 0.000433 0.00122875 0 
0.000530642 0.00119362 0 0.000609881 0.00114787 0 0.000689119 0.00110213 0 
0.000768358 0.00105638 0 0.000847597 0.000989375 0 0.000866 0.00088725 0 
0.000866 0.00079575 0 0.000866 0.00070425 0 0.000866 0.00061275 0 
0.000847597 0.000510625 0 0.000530642 0.000306375 0 0.000609881 0.000352125 0 
0.000689119 0.000397875 0 0.000768358 0.000443625 0 0.000433 0.00027125 0 
0.000433 0.0007925 0 0.0003905 0.00075 0 0.000433 0.0007075 0 
0.000448026 0.000234974 0 0.000453526 0.0002555 0 0.000866 0.00047875 0 
0.000963642 0.000443625 0 0.00104288 0.000397875 0 0.00112212 0.000352125 0 
0.00120136 0.000306375 0 0.0012806 0.000239375 0 0.001299 0.00013725 0 
0.001299 4.575e-05 0 0.001299 -4.575e-05 0 0.001299 -0.00013725 0 
0.0012806 -0.000239375 0 0.00120136 -0.000306375 0 0.00112212 -0.000352125 0 
0.00104288 -0.000397875 0 0.000963642 -0.000443625 0 0.000866 -0.00047875 0 
0.000530642 -0.000306375 0 0.000609881 -0.000352125 0 0.000689119 -0.000397875 0 
0.000768358 -0.000443625 0 0.000453526 -0.0002555 0 0.000448026 -0.000234974 0 
0.000866 4.25e-05 0 0.0008235 -3.53397e-19 0 0.000866 -4.25e-05 0 
0.000433 -0.00027125 0 0.000847597 -0.000510625 0 0.000866 -0.00061275 0 
0.000866 -0.00070425 0 0.000866 -0.00079575 0 0.000866 -0.00088725 0 
0.000847597 -0.000989375 0 0.000768358 -0.00105638 0 0.000689119 -0.00110213 0 
0.000609881 -0.00114787 0 0.000530642 -0.00119362 0 0.000433 -0.00122875 0 
0.000335358 -0.00119362 0 0.000256119 -0.00114787 0 0.000176881 -0.00110213 0 
9.76417e-05 -0.00105638 0 2.05259e-05 -0.0010055 0 1.5026e-05 -0.000984974 0 
0 -0.00061275 0 0 -0.00070425 0 0 -0.00079575 0 
0 -0.00088725 0 1.5026e-05 -0.000515026 0 2.05259e-05 -0.0004945 0 
0.000433 -0.0007075 0 0.0003905 -0.00075 0 0.000433 -0.0007925 0 
-1.84031e-05 -0.000510625 0 -1.84031e-05 -0.000989375 0 -9.76417e-05 -0.00105638 0 
-0.000176881 -0.00110213 0 -0.000256119 -0.00114787 0 -0.000335358 -0.00119362 0 
-0.000433 -0.00122875 0 -0.000530642 -0.00119362 0 -0.000609881 -0.00114787 0 
-0.000689119 -0.00110213 0 -0.000768358 -0.00105638 0 -0.000845474 -0.0010055 0 
-0.000850974 -0.000984974 0 -0.000866 -0.00088725 0 -0.000866 -0.00079575 0 
-0.000866 -0.00070425 0 -0.000866 -0.00061275 0 -0.000850974 -0.000515026 0 
-0.000845474 -0.0004945 0 -0.000530642 -0.000306375 0 -0.000609881 -0.000352125 0 
-0.000689119 -0.000397875 0 -0.000768358 -0.000443625 0 -0.000433 -0.00027125 0 
-0.000433 -0.0007075 0 -0.0004755 -0.00075 0 -0.000433 -0.0007925 0 
-0.000451403 -0.000239375 0 -0.000866 -0.00047875 0 -0.000963642 -0.000443625 0 
-0.00104288 -0.000397875 0 -0.00112212 -0.000352125 0 -0.00120136 -0.000306375 0 
-0.00127847 -0.0002555 0 -0.00128397 -0.000234974 0 -0.001299 -0.00013725 0 
-0.001299 -4.575e-05 0 -0.001299 4.575e-05 0 -0.001299 0.00013725 0 
-0.00128397 0.000234974 0 -0.00127847 0.0002555 0 -0.00120136 0.000306375 0 
-0.00112212 0.000352125 0 -0.00104288 0.000397875 0 -0.000963642 0.000443625 0 
-0.000866 0.00047875 0 -0.000530642 0.000306375 0 -0.000609881 0.000352125 0 
-0.000689119 0.000397875 0 -0.000768358 0.000443625 0 -0.000451403 0.000239375 0 
-0.000866 4.25e-05 0 -0.0009085 -3.53397e-19 0 -0.000866 -4.25e-05 0 
-0.000433 0.00027125 0 -0.000845474 0.0004945 0 -0.000850974 0.000515026 0 
-0.000866 0.00061275 0 -0.000866 0.00070425 0 -0.000866 0.00079575 0 
-0.000866 0.00088725 0 -0.000850974 0.000984974 0 -0.000845474 0.0010055 0 
-0.000768358 0.00105638 0 -0.000689119 0.00110213 0 -0.000609881 0.00114787 0 
-0.000530642 0.00119362 0 -0.000433 0.00122875 0 -0.000335358 0.00119362 0 
-0.000256119 0.00114787 0 -0.000176881 0.00110213 0 -9.76417e-05 0.00105638 0 
-1.84031e-05 0.000989375 0 -1.84031e-05 0.000510625 0 -0.000433 0.0007925 0 
-0.0004755 0.00075 0 -0.000433 0.0007075 0 -9.82724e-20 0.00047875 -0.0005 
-0.000335358 0.000306375 -0.0005 -0.000256119 0.000352125 -0.0005 -0.000176881 0.000397875 -0.0005 
-9.76417e-05 0.000443625 -0.0005 -0.000412474 0.0002555 -0.0005 -0.000417974 0.000234974 -0.0005 
-0.000433 -0.00013725 -0.0005 -0.000433 -4.575e-05 -0.0005 -0.000433 4.575e-05 -0.0005 
-0.000433 0.00013725 -0.0005 -0.000417974 -0.000234974 -0.0005 -0.000412474 -0.0002555 -0.0005 
[...]
POINT_DATA 2586
VECTORS displacement float
-1.32264e-09 1.02476e-07 6.4085e-08
7.94826e-09 1.01794e-07 6.41453e-08
-8.55011e-08 6.37171e-08 6.73408e-08
-8.46877e-08 6.07255e-08 6.73717e-08
-8.97758e-08 5.59078e-08 6.9318e-08
-8.98687e-08 -5.59622e-08 6.93251e-08
-8.47821e-08 -6.07825e-08 6.73829e-08
-8.55948e-08 -6.37744e-08 6.73528e-08
-1.33026e-09 -1.02273e-07 6.42764e-08
7.92382e-09 -1.01895e-07 6.39752e-08
8.46647e-08 -5.29147e-08 6.39152e-08
8.92773e-08 -4.49811e-08 6.40796e-08
8.93924e-08 4.50371e-08 6.41086e-08
8.47507e-08 5.3101e-08 6.41055e-08
0 0 0
8.69555e-09 1.04423e-07 6.39929e-08
3.96381e-09 1.10399e-07 6.42298e-08
1.32104e-08 2.04136e-07 6.42812e-08
1.7175e-08 2.10698e-07 6.38471e-08
1.65974e-08 2.14231e-07 6.39396e-08
9.44623e-08 2.54678e-07 6.35098e-08
1.06783e-07 2.54317e-07 6.32149e-08
1.8346e-07 2.04584e-07 6.32665e-08
1.89226e-07 1.93743e-07 6.33508e-08
1.83577e-07 1.05914e-07 6.40447e-08
1.76621e-07 9.78561e-08 6.39664e-08
9.41145e-08 5.28392e-08 6.39247e-08
9.98452e-08 1.49909e-07 2.55172e-08
9.46513e-08 5.03215e-08 6.38253e-08
1.87208e-07 9.95155e-08 6.41766e-08
2.6397e-07 5.64415e-08 6.33246e-08
2.70135e-07 4.58441e-08 6.34074e-08
2.70066e-07 -4.59371e-08 6.33614e-08
2.63899e-07 -5.65527e-08 6.32876e-08
1.87138e-07 -9.97296e-08 6.37827e-08
1.76613e-07 -9.78066e-08 6.40724e-08
9.40428e-08 -5.29732e-08 6.40963e-08
9.45562e-08 -5.04079e-08 6.39394e-08
1.82543e-07 3.95079e-11 2.54455e-08
1.83542e-07 -1.05918e-07 6.40474e-08
1.89196e-07 -1.93814e-07 6.34269e-08
1.8341e-07 -2.04638e-07 6.33358e-08
1.06716e-07 -2.54302e-07 6.32068e-08
9.43942e-08 -2.54668e-07 6.35038e-08
1.65176e-08 -2.14193e-07 6.39232e-08
1.70927e-08 -2.10659e-07 6.38297e-08
1.3107e-08 -2.04086e-07 6.42531e-08
3.98956e-09 -1.10328e-07 6.42616e-08
8.69375e-09 -1.04479e-07 6.38809e-08
9.97392e-08 -1.50656e-07 2.55194e-08
1.0481e-08 -2.14521e-07 6.41771e-08
-5.49887e-08 -2.73083e-07 6.34888e-08
-6.72827e-08 -2.74623e-07 6.37756e-08
-1.55918e-07 -2.47005e-07 6.37182e-08
-1.56009e-07 -2.43368e-07 6.36223e-08
-1.63823e-07 -2.36662e-07 6.39232e-08
-1.8999e-07 -1.49855e-07 6.82882e-08
-1.86038e-07 -1.41739e-07 6.95543e-08
-1.88253e-07 -1.39225e-07 7.04574e-08
-9.52541e-08 -6.57752e-08 6.93336e-08
-7.31061e-08 -1.66538e-07 2.57397e-08
-2.0145e-07 -1.43261e-07 7.26805e-08
-3.33716e-07 -8.22129e-08 7.69836e-08
-3.32993e-07 -7.87791e-08 7.69732e-08
-3.40065e-07 -7.20412e-08 7.70434e-08
-3.4005e-07 7.20105e-08 7.7044e-08
-3.32974e-07 7.87473e-08 7.69739e-08
-3.33696e-07 8.21815e-08 7.69842e-08
-2.01213e-07 1.43174e-07 7.25916e-08
-1.88419e-07 1.39159e-07 7.05759e-08
-9.51716e-08 6.57082e-08 6.93255e-08
-2.00159e-07 -2.24527e-11 7.26747e-08
-1.8617e-07 1.41675e-07 6.96465e-08
-1.90068e-07 1.49806e-07 6.83404e-08
-1.63721e-07 2.36593e-07 6.39263e-08
-1.5591e-07 2.43296e-07 6.36272e-08
-1.55818e-07 2.46934e-07 6.37233e-08
-6.76807e-08 2.74561e-07 6.35044e-08
-5.53884e-08 2.73103e-07 6.3794e-08
1.05639e-08 2.14559e-07 6.42108e-08
-7.30495e-08 1.66727e-07 2.5726e-08
-1.32264e-09 1.02476e-07 -6.4085e-08
7.94826e-09 1.01794e-07 -6.41453e-08
-8.55011e-08 6.37171e-08 -6.73408e-08
-8.46877e-08 6.07255e-08 -6.73717e-08
-8.97758e-08 5.59078e-08 -6.9318e-08
-8.98687e-08 -5.59622e-08 -6.93251e-08
-8.47821e-08 -6.07825e-08 -6.73829e-08
-8.55948e-08 -6.37744e-08 -6.73528e-08
-1.33026e-09 -1.02273e-07 -6.42764e-08
7.92382e-09 -1.01895e-07 -6.39752e-08
8.46647e-08 -5.29147e-08 -6.39152e-08
8.92773e-08 -4.49811e-08 -6.40796e-08
8.93924e-08 4.50371e-08 -6.41086e-08
8.47507e-08 5.3101e-08 -6.41055e-08
0 0 0
8.69555e-09 1.04423e-07 -6.39929e-08
3.96381e-09 1.10399e-07 -6.42298e-08
1.32104e-08 2.04136e-07 -6.42812e-08
1.7175e-08 2.10698e-07 -6.38471e-08
1.65974e-08 2.14231e-07 -6.39396e-08
9.44623e-08 2.54678e-07 -6.35098e-08
1.06783e-07 2.54317e-07 -6.32149e-08
1.8346e-07 2.04584e-07 -6.32665e-08
1.89226e-07 1.93743e-07 -6.33508e-08
1.83577e-07 1.05914e-07 -6.40447e-08
1.76621e-07 9.78561e-08 -6.39664e-08
9.41145e-08 5.28392e-08 -6.39247e-08
9.98452e-08 1.49909e-07 -2.55172e-08
9.46513e-08 5.03215e-08 -6.38253e-08
1.87208e-07 9.95155e-08 -6.41766e-08
2.6397e-07 5.64415e-08 -6.33246e-08
2.70135e-07 4.58441e-08 -6.34074e-08
2.70066e-07 -4.59371e-08 -6.33614e-08
2.63899e-07 -5.65527e-08 -6.32876e-08
1.87138e-07 -9.97296e-08 -6.37827e-08
1.76613e-07 -9.78066e-08 -6.40724e-08
9.40428e-08 -5.29732e-08 -6.40963e-08
9.45562e-08 -5.04079e-08 -6.39394e-08
1.82543e-07 3.95079e-11 -2.54455e-08
1.83542e-07 -1.05918e-07 -6.40474e-08
1.89196e-07 -1.93814e-07 -6.34269e-08
1.8341e-07 -2.04638e-07 -6.33358e-08
1.06716e-07 -2.54302e-07 -6.32068e-08
9.43942e-08 -2.54668e-07 -6.35038e-08
1.65176e-08 -2.14193e-07 -6.39232e-08
1.70927e-08 -2.10659e-07 -6.38297e-08
1.3107e-08 -2.04086e-07 -6.42531e-08
3.98956e-09 -1.10328e-07 -6.42616e-08
8.69375e-09 -1.04479e-07 -6.38809e-08
9.97392e-08 -1.50656e-07 -2.55194e-08
1.0481e-08 -2.14521e-07 -6.41771e-08
-5.49887e-08 -2.73083e-07 -6.34888e-08
-6.72827e-08 -2.74623e-07 -6.37756e-08
-1.55918e-07 -2.47005e-07 -6.37182e-08
-1.56009e-07 -2.43368e-07 -6.36223e-08
-1.63823e-07 -2.36662e-07 -6.39232e-08
-1.8999e-07 -1.49855e-07 -6.82882e-08
-1.86038e-07 -1.41739e-07 -6.95543e-08
-1.88253e-07 -1.39225e-07 -7.04574e-08
-9.52541e-08 -6.57752e-08 -6.93336e-08
-7.31061e-08 -1.66538e-07 -2.57397e-08
-2.0145e-07 -1.43261e-07 -7.26805e-08
-3.33716e-07 -8.22129e-08 -7.69836e-08
-3.32993e-07 -7.87791e-08 -7.69732e-08
-3.40065e-07 -7.20412e-08 -7.70434e-08
-3.4005e-07 7.20105e-08 -7.7044e-08
-3.32974e-07 7.87473e-08 -7.69739e-08
-3.33696e-07 8.21815e-08 -7.69842e-08
-2.01213e-07 1.43174e-07 -7.25916e-08
-1.88419e-07 1.39159e-07 -7.05759e-08
-9.51716e-08 6.57082e-08 -6.93255e-08
-2.00159e-07 -2.24527e-11 -7.26747e-08
-1.8617e-07 1.41675e-07 -6.96465e-08
-1.90068e-07 1.49806e-07 -6.83404e-08
-1.63721e-07 2.36593e-07 -6.39263e-08
-1.5591e-07 2.43296e-07 -6.36272e-08
-1.55818e-07 2.46934e-07 -6.37233e-08
-6.76807e-08 2.74561e-07 -6.35044e-08
-5.53884e-08 2.73103e-07 -6.3794e-08
1.05639e-08 2.14559e-07 -6.42108e-08
-7.30495e-08 1.66727e-07 -2.5726e-08
3.21891e-09 9.97531e-08 6.38355e-08
-6.57309e-08 7.29907e-08 6.17977e-08
-5.02116e-08 7.96073e-08 5.73812e-08
-3.58629e-08 8.58733e-08 5.68684e-08
-2.06896e-08 9.27301e-08 6.01677e-08
-8.48326e-08 6.2183e-08 6.73815e-08
-8.61583e-08 5.71655e-08 6.80859e-08
-8.99779e-08 -3.15635e-08 6.73557e-08
-8.96411e-08 -1.02864e-08 6.56327e-08
-8.95972e-08 1.02439e-08 6.55703e-08
-8.99203e-08 3.15119e-08 6.73754e-08
-8.62523e-08 -5.72214e-08 6.80947e-08
-8.49269e-08 -6.22402e-08 6.73933e-08
-2.06607e-08 -9.274e-08 6.01481e-08
-3.59225e-08 -8.58445e-08 5.70592e-08
-5.03009e-08 -7.96258e-08 5.74145e-08
-6.58255e-08 -7.30362e-08 6.18163e-08
3.12508e-09 -9.96942e-08 6.38468e-08
6.63316e-08 -6.40188e-08 5.97297e-08
5.24444e-08 -7.24796e-08 5.60519e-08
3.96656e-08 -8.07077e-08 5.60611e-08
2.59763e-08 -8.96704e-08 5.97786e-08
8.46833e-08 -4.77451e-08 6.38309e-08
8.86345e-08 2.36952e-08 5.96819e-08
8.84965e-08 7.48984e-09 5.61141e-08
8.84375e-08 -7.48023e-09 5.62505e-08
8.86195e-08 -2.36596e-08 5.96284e-08
8.4799e-08 4.7858e-08 6.39174e-08
2.59808e-08 8.97873e-08 5.97274e-08
3.97131e-08 8.07956e-08 5.62359e-08
5.25331e-08 7.25937e-08 5.6234e-08
6.64625e-08 6.40247e-08 5.97015e-08
0 0 0
0 0 0
0 0 0
8.64268e-09 1.03176e-07 6.4155e-08
7.15414e-09 1.08085e-07 6.38804e-08
5.28977e-09 1.32134e-07 5.98755e-08
7.08302e-09 1.48795e-07 5.65619e-08
9.02008e-09 1.64357e-07 5.64457e-08
1.08901e-08 1.81418e-07 5.99662e-08
1.587e-08 2.06249e-07 6.38664e-08
1.70267e-08 2.12496e-07 6.39637e-08
3.81019e-08 2.19182e-07 6.01431e-08
5.31188e-08 2.21968e-07 5.71289e-08
6.49732e-08 2.2833e-07 5.71536e-08
7.69641e-08 2.39244e-07 5.98283e-08
1.00278e-07 2.51777e-07 6.31054e-08
1.2309e-07 2.37431e-07 5.99148e-08
1.34474e-07 2.24952e-07 5.68264e-08
1.46063e-07 2.17208e-07 5.68862e-08
1.61414e-07 2.1225e-07 5.96841e-08
1.83977e-07 1.97739e-07 6.31537e-08
1.82782e-07 1.70863e-07 5.97476e-08
1.77152e-07 1.55262e-07 5.72573e-08
1.76065e-07 1.41703e-07 5.71494e-08
1.79125e-07 1.26785e-07 6.02685e-08
1.77804e-07 1.02958e-07 6.38524e-08
1.13171e-07 6.35802e-08 5.98177e-08
1.27792e-07 7.13297e-08 5.61578e-08
1.41535e-07 7.86978e-08 5.62052e-08
1.56624e-07 8.67796e-08 5.98545e-08
8.94792e-08 5.52183e-08 6.37451e-08
9.53884e-08 1.56804e-07 2.5891e-08
8.80171e-08 1.50862e-07 2.55987e-08
9.35392e-08 1.44433e-07 2.52619e-08
9.2755e-08 4.70046e-08 6.37642e-08
9.47265e-08 5.14858e-08 6.39575e-08
1.81586e-07 9.6215e-08 6.37876e-08
2.0252e-07 8.44339e-08 6.02548e-08
2.13609e-07 7.35994e-08 5.7335e-08
2.25496e-07 6.69988e-08 5.70565e-08
2.41368e-07 6.31275e-08 5.97662e-08
2.64742e-07 4.96084e-08 6.32154e-08
2.64798e-07 2.29289e-08 5.9798e-08
2.60602e-07 6.89216e-09 5.68771e-08
2.60411e-07 -7.16526e-09 5.71236e-08
2.64805e-07 -2.29925e-08 5.97108e-08
2.64681e-07 -4.97061e-08 6.31706e-08
2.41276e-07 -6.32437e-08 5.97596e-08
2.25389e-07 -6.70851e-08 5.70463e-08
2.13489e-07 -7.35426e-08 5.7113e-08
2.02422e-07 -8.44478e-08 6.03707e-08
1.81284e-07 -9.64107e-08 6.36734e-08
1.1306e-07 -6.35215e-08 5.97741e-08
1.27709e-07 -7.13379e-08 5.6344e-08
1.41476e-07 -7.87109e-08 5.63724e-08
1.56574e-07 -8.67934e-08 5.97732e-08
9.46392e-08 -5.15987e-08 6.41068e-08
9.26371e-08 -4.70079e-08 6.37839e-08
1.76867e-07 5.65124e-09 2.56599e-08
1.69807e-07 3.97426e-10 2.5846e-08
1.76254e-07 -5.97708e-09 2.56981e-08
8.95056e-08 -5.51806e-08 6.3737e-08
1.77776e-07 -1.02941e-07 6.38729e-08
1.7912e-07 -1.26823e-07 6.01812e-08
1.75845e-07 -1.41596e-07 5.74127e-08
1.77297e-07 -1.55098e-07 5.7021e-08
1.82705e-07 -1.70941e-07 5.98595e-08
1.83932e-07 -1.978e-07 6.323e-08
1.6133e-07 -2.12227e-07 5.97459e-08
1.45963e-07 -2.17211e-07 5.69134e-08
1.34379e-07 -2.24929e-07 5.67859e-08
1.23017e-07 -2.37412e-07 5.98941e-08
1.0021e-07 -2.51765e-07 6.30983e-08
7.68858e-08 -2.39237e-07 5.98325e-08
6.48898e-08 -2.28299e-07 5.71626e-08
5.30479e-08 -2.21921e-07 5.71324e-08
3.80355e-08 -2.19139e-07 6.0138e-08
1.69461e-08 -2.12457e-07 6.3947e-08
1.57787e-08 -2.06205e-07 6.3844e-08
5.23968e-09 -1.32091e-07 5.99291e-08
7.08817e-09 -1.48795e-07 5.64318e-08
8.9155e-09 -1.64342e-07 5.65795e-08
1.08586e-08 -1.81381e-07 5.99171e-08
7.17749e-09 -1.08066e-07 6.38633e-08
8.63329e-09 -1.03257e-07 6.40074e-08
9.39659e-08 -1.44116e-07 2.57905e-08
8.79531e-08 -1.50515e-07 2.55973e-08
9.48346e-08 -1.5652e-07 2.53679e-08
-7.81941e-10 -1.07717e-07 6.41219e-08
9.58303e-09 -2.07901e-07 6.40722e-08
-8.49121e-09 -2.22703e-07 6.04654e-08
-2.12457e-08 -2.29053e-07 5.74954e-08
-3.07239e-08 -2.38831e-07 5.72902e-08
-4.03046e-08 -2.53717e-07 6.02646e-08
-6.18218e-08 -2.71132e-07 6.33782e-08
-8.61731e-08 -2.61764e-07 6.01213e-08
-9.97013e-08 -2.53561e-07 5.74522e-08
-1.13451e-07 -2.49941e-07 5.73578e-08
-1.3103e-07 -2.49701e-07 6.01795e-08
-1.5573e-07 -2.45189e-07 6.37402e-08
-1.59091e-07 -2.38697e-07 6.35898e-08
-1.62356e-07 -2.13872e-07 6.06401e-08
-1.62345e-07 -1.98446e-07 5.85122e-08
-1.67043e-07 -1.85061e-07 5.92935e-08
-1.76821e-07 -1.706e-07 6.30141e-08
-1.86203e-07 -1.46139e-07 6.83345e-08
-1.86926e-07 -1.40391e-07 7.01043e-08
-1.15393e-07 -8.08154e-08 6.7607e-08
-1.33014e-07 -9.43923e-08 6.59868e-08
-1.50323e-07 -1.0772e-07 6.60712e-08
-1.6842e-07 -1.21763e-07 6.81221e-08
-9.04618e-08 -6.74077e-08 6.78418e-08
-7.99612e-08 -1.61867e-07 2.66065e-08
-8.56149e-08 -1.70844e-07 2.66133e-08
-7.8019e-08 -1.74775e-07 2.58515e-08
-9.47368e-08 -5.99211e-08 6.98564e-08
-1.95921e-07 -1.38499e-07 7.19642e-08
-2.29708e-07 -1.32594e-07 7.38668e-08
-2.56267e-07 -1.20727e-07 7.45234e-08
-2.82183e-07 -1.08271e-07 7.52763e-08
-3.07844e-07 -9.54403e-08 7.62121e-08
-3.33125e-07 -8.05523e-08 7.69895e-08
-3.35224e-07 -7.39786e-08 7.69852e-08
-3.40569e-07 -4.30082e-08 7.66149e-08
-3.40839e-07 -1.43356e-08 7.62962e-08
-3.40838e-07 1.42991e-08 7.62942e-08
-3.40561e-07 4.29733e-08 7.66152e-08
-3.35207e-07 7.39468e-08 7.69858e-08
-3.33106e-07 8.05207e-08 7.69902e-08
-3.07816e-07 9.54015e-08 7.62131e-08
-2.82147e-07 1.08214e-07 7.52702e-08
-2.56251e-07 1.20681e-07 7.44919e-08
-2.29704e-07 1.32605e-07 7.3881e-08
-1.9567e-07 1.38409e-07 7.19026e-08
-1.15319e-07 8.07266e-08 6.7607e-08
-1.3295e-07 9.42882e-08 6.60007e-08
-1.50267e-07 1.0761e-07 6.61467e-08
-1.68364e-07 1.2169e-07 6.81213e-08
-9.4665e-08 5.98585e-08 6.9851e-08
-2.11987e-07 1.21507e-08 7.32523e-08
-2.24189e-07 -1.26882e-11 7.38872e-08
-2.11972e-07 -1.21985e-08 7.3281e-08
-9.03732e-08 6.73452e-08 6.78307e-08
-1.87081e-07 1.4032e-07 7.02114e-08
-1.8629e-07 1.46082e-07 6.8394e-08
-1.76852e-07 1.70543e-07 6.30448e-08
-1.67033e-07 1.85056e-07 5.93024e-08
-1.62282e-07 1.98434e-07 5.8531e-08
-1.62269e-07 2.13814e-07 6.06416e-08
-1.58991e-07 2.38627e-07 6.35935e-08
-1.5563e-07 2.45118e-07 6.37451e-08
-1.3094e-07 2.49606e-07 6.01945e-08
-1.13362e-07 2.49844e-07 5.73548e-08
-9.9662e-08 2.53276e-07 5.72342e-08
-8.61327e-08 2.61646e-07 6.02647e-08
-6.17144e-08 2.71111e-07 6.33951e-08
-4.02758e-08 2.5377e-07 6.01551e-08
-3.06897e-08 2.39079e-07 5.75346e-08
-2.11692e-08 2.29141e-07 5.75321e-08
-8.39535e-09 2.22751e-07 6.04901e-08
9.65422e-09 2.07944e-07 6.41093e-08
-8.1023e-10 1.07843e-07 6.40321e-08
-7.72836e-08 1.74986e-07 2.6269e-08
-8.55527e-08 1.69989e-07 2.66234e-08
-8.05394e-08 1.62122e-07 2.61818e-08
3.21891e-09 9.97531e-08 -6.38355e-08
-6.57309e-08 7.29907e-08 -6.17977e-08
-5.02116e-08 7.96073e-08 -5.73812e-08
-3.58629e-08 8.58733e-08 -5.68684e-08
-2.06896e-08 9.27301e-08 -6.01677e-08
-8.48326e-08 6.2183e-08 -6.73815e-08
-8.61583e-08 5.71655e-08 -6.80859e-08
-8.99779e-08 -3.15635e-08 -6.73557e-08
-8.96411e-08 -1.02864e-08 -6.56327e-08
-8.95972e-08 1.02439e-08 -6.55703e-08
-8.99203e-08 3.15119e-08 -6.73754e-08
-8.62523e-08 -5.72214e-08 -6.80947e-08
-8.49269e-08 -6.22402e-08 -6.73933e-08
-2.06607e-08 -9.274e-08 -6.01481e-08
-3.59225e-08 -8.58445e-08 -5.70592e-08
-5.03009e-08 -7.96258e-08 -5.74145e-08
-6.58255e-08 -7.30362e-08 -6.18163e-08
3.12508e-09 -9.96942e-08 -6.38468e-08
6.63316e-08 -6.40188e-08 -5.97297e-08
5.24444e-08 -7.24796e-08 -5.60519e-08
3.96656e-08 -8.07077e-08 -5.60611e-08
2.59763e-08 -8.96704e-08 -5.97786e-08
8.46833e-08 -4.77451e-08 -6.38309e-08
8.86345e-08 2.36952e-08 -5.96819e-08
8.84965e-08 7.48984e-09 -5.61141e-08
8.84375e-08 -7.48023e-09 -5.62505e-08
8.86195e-08 -2.36596e-08 -5.96284e-08
8.4799e-08 4.7858e-08 -6.39174e-08
2.59808e-08 8.97873e-08 -5.97274e-08
3.97131e-08 8.07956e-08 -5.62359e-08
5.25331e-08 7.25937e-08 -5.6234e-08
6.64625e-08 6.40247e-08 -5.97015e-08
0 0 0
0 0 0
0 0 0
8.64268e-09 1.03176e-07 -6.4155e-08
7.15414e-09 1.08085e-07 -6.38804e-08
5.28977e-09 1.32134e-07 -5.98755e-08
7.08302e-09 1.48795e-07 -5.65619e-08
9.02008e-09 1.64357e-07 -5.64457e-08
1.08901e-08 1.81418e-07 -5.99662e-08
1.587e-08 2.06249e-07 -6.38664e-08
1.70267e-08 2.12496e-07 -6.39637e-08
3.81019e-08 2.19182e-07 -6.01431e-08
5.31188e-08 2.21968e-07 -5.71289e-08
6.49732e-08 2.2833e-07 -5.71536e-08
7.69641e-08 2.39244e-07 -5.98283e-08
1.00278e-07 2.51777e-07 -6.31054e-08
1.2309e-07 2.37431e-07 -5.99148e-08
1.34474e-07 2.24952e-07 -5.68264e-08
1.46063e-07 2.17208e-07 -5.68862e-08
1.61414e-07 2.1225e-07 -5.96841e-08
1.83977e-07 1.97739e-07 -6.31537e-08
1.82782e-07 1.70863e-07 -5.97476e-08
1.77152e-07 1.55262e-07 -5.72573e-08
1.76065e-07 1.41703e-07 -5.71494e-08
1.79125e-07 1.26785e-07 -6.02685e-08
1.77804e-07 1.02958e-07 -6.38524e-08
1.13171e-07 6.35802e-08 -5.98177e-08
1.27792e-07 7.13297e-08 -5.61578e-08
1.41535e-07 7.86978e-08 -5.62052e-08
1.56624e-07 8.67796e-08 -5.98545e-08
8.94792e-08 5.52183e-08 -6.37451e-08
9.53884e-08 1.56804e-07 -2.5891e-08
8.80171e-08 1.50862e-07 -2.55987e-08
9.35392e-08 1.44433e-07 -2.52619e-08
9.2755e-08 4.70046e-08 -6.37642e-08
9.47265e-08 5.14858e-08 -6.39575e-08
1.81586e-07 9.6215e-08 -6.37876e-08
2.0252e-07 8.44339e-08 -6.02548e-08
2.13609e-07 7.35994e-08 -5.7335e-08
2.25496e-07 6.69988e-08 -5.70565e-08
2.41368e-07 6.31275e-08 -5.97662e-08
2.64742e-07 4.96084e-08 -6.32154e-08
2.64798e-07 2.29289e-08 -5.9798e-08
2.60602e-07 6.89216e-09 -5.68771e-08
2.60411e-07 -7.16526e-09 -5.71236e-08
2.64805e-07 -2.29925e-08 -5.97108e-08
2.64681e-07 -4.97061e-08 -6.31706e-08
2.41276e-07 -6.32437e-08 -5.97596e-08
2.25389e-07 -6.70851e-08 -5.70463e-08
2.13489e-07 -7.35426e-08 -5.7113e-08
2.02422e-07 -8.44478e-08 -6.03707e-08
1.81284e-07 -9.64107e-08 -6.36734e-08
1.1306e-07 -6.35215e-08 -5.97741e-08
1.27709e-07 -7.13379e-08 -5.6344e-08
1.41476e-07 -7.87109e-08 -5.63724e-08
1.56574e-07 -8.67934e-08 -5.97732e-08
9.46392e-08 -5.15987e-08 -6.41068e-08
9.26371e-08 -4.70079e-08 -6.37839e-08
1.76867e-07 5.65124e-09 -2.56599e-08
1.69807e-07 3.97426e-10 -2.5846e-08
1.76254e-07 -5.97708e-09 -2.56981e-08
8.95056e-08 -5.51806e-08 -6.3737e-08
1.77776e-07 -1.02941e-07 -6.38729e-08
1.7912e-07 -1.26823e-07 -6.01812e-08
1.75845e-07 -1.41596e-07 -5.74127e-08
1.77297e-07 -1.55098e-07 -5.7021e-08
1.82705e-07 -1.70941e-07 -5.98595e-08
1.83932e-07 -1.978e-07 -6.323e-08
1.6133e-07 -2.12227e-07 -5.97459e-08
1.45963e-07 -2.17211e-07 -5.69134e-08
1.34379e-07 -2.24929e-07 -5.67859e-08
1.23017e-07 -2.37412e-07 -5.98941e-08
1.0021e-07 -2.51765e-07 -6.30983e-08
7.68858e-08 -2.39237e-07 -5.98325e-08
6.48898e-08 -2.28299e-07 -5.71626e-08
5.30479e-08 -2.21921e-07 -5.71324e-08
3.80355e-08 -2.19139e-07 -6.0138e-08
1.69461e-08 -2.12457e-07 -6.3947e-08
1.57787e-08 -2.06205e-07 -6.3844e-08
5.23968e-09 -1.32091e-07 -5.99291e-08
7.08817e-09 -1.48795e-07 -5.64318e-08
8.9155e-09 -1.64342e-07 -5.65795e-08
1.08586e-08 -1.81381e-07 -5.99171e-08
7.17749e-09 -1.08066e-07 -6.38633e-08
8.63329e-09 -1.03257e-07 -6.40074e-08
9.39659e-08 -1.44116e-07 -2.57905e-08
8.79531e-08 -1.50515e-07 -2.55973e-08
9.48346e-08 -1.5652e-07 -2.53679e-08
-7.81941e-10 -1.07717e-07 -6.41219e-08
9.58303e-09 -2.07901e-07 -6.40722e-08
-8.49121e-09 -2.22703e-07 -6.04654e-08
-2.12457e-08 -2.29053e-07 -5.74954e-08
-3.07239e-08 -2.38831e-07 -5.72902e-08
-4.03046e-08 -2.53717e-07 -6.02646e-08
-6.18218e-08 -2.71132e-07 -6.33782e-08
-8.61731e-08 -2.61764e-07 -6.01213e-08
-9.97013e-08 -2.53561e-07 -5.74522e-08
-1.13451e-07 -2.49941e-07 -5.73578e-08
-1.3103e-07 -2.49701e-07 -6.01795e-08
-1.5573e-07 -2.45189e-07 -6.37402e-08
-1.59091e-07 -2.38697e-07 -6.35898e-08
-1.62356e-07 -2.13872e-07 -6.06401e-08
-1.62345e-07 -1.98446e-07 -5.85122e-08
-1.67043e-07 -1.85061e-07 -5.92935e-08
-1.76821e-07 -1.706e-07 -6.30141e-08
-1.86203e-07 -1.46139e-07 -6.83345e-08
-1.86926e-07 -1.40391e-07 -7.01043e-08
-1.15393e-07 -8.08154e-08 -6.7607e-08
-1.33014e-07 -9.43923e-08 -6.59868e-08
-1.50323e-07 -1.0772e-07 -6.60712e-08
-1.6842e-07 -1.21763e-07 -6.81221e-08
-9.04618e-08 -6.74077e-08 -6.78418e-08
-7.99612e-08 -1.61867e-07 -2.66065e-08
-8.56149e-08 -1.70844e-07 -2.66133e-08
-7.8019e-08 -1.74775e-07 -2.58515e-08
-9.47368e-08 -5.99211e-08 -6.98564e-08
-1.95921e-07 -1.38499e-07 -7.19642e-08
-2.29708e-07 -1.32594e-07 -7.38668e-08
-2.56267e-07 -1.20727e-07 -7.45234e-08
-2.82183e-07 -1.08271e-07 -7.52763e-08
-3.07844e-07 -9.54403e-08 -7.62121e-08
-3.33125e-07 -8.05523e-08 -7.69895e-08
-3.35224e-07 -7.39786e-08 -7.69852e-08
-3.40569e-07 -4.30082e-08 -7.66149e-08
-3.40839e-07 -1.43356e-08 -7.62962e-08
-3.40838e-07 1.42991e-08 -7.62942e-08
-3.40561e-07 4.29733e-08 -7.66152e-08
-3.35207e-07 7.39468e-08 -7.69858e-08
-3.33106e-07 8.05207e-08 -7.69902e-08
-3.07816e-07 9.54015e-08 -7.62131e-08
-2.82147e-07 1.08214e-07 -7.52702e-08
-2.56251e-07 1.20681e-07 -7.44919e-08
-2.29704e-07 1.32605e-07 -7.3881e-08
-1.9567e-07 1.38409e-07 -7.19026e-08
-1.15319e-07 8.07266e-08 -6.7607e-08
-1.3295e-07 9.42882e-08 -6.60007e-08
-1.50267e-07 1.0761e-07 -6.61467e-08
-1.68364e-07 1.2169e-07 -6.81213e-08