# vtk DataFile Version 3.0
vtk output at time 10
ASCII
DATASET UNSTRUCTURED_GRID
POINTS 626 float
-3.68058e-05 0.000978749 0 3.68058e-05 0.000978749 0 -0.000829194 0.00052125 0 
-0.0008235 0.0005 0 -0.000866 0.0004575 0 -0.000866 -0.0004575 0 
-0.0008235 -0.0005 0 -0.000829194 -0.00052125 0 -3.68058e-05 -0.000978749 0 
3.68058e-05 -0.000978749 0 0.000829194 -0.00052125 0 0.000866 -0.0004575 0 
0.000866 0.0004575 0 0.000829194 0.00052125 0 8.5e-05 0 0 
-3.68058e-05 0.000978749 -0.001 3.68058e-05 0.000978749 -0.001 -0.000829194 0.00052125 -0.001 
-0.0008235 0.0005 -0.001 -0.000866 0.0004575 -0.001 -0.000866 -0.0004575 -0.001 
-0.0008235 -0.0005 -0.001 -0.000829194 -0.00052125 -0.001 -3.68058e-05 -0.000978749 -0.001 
3.68058e-05 -0.000978749 -0.001 0.000829194 -0.00052125 -0.001 0.000866 -0.0004575 -0.001 
0.000866 0.0004575 -0.001 0.000829194 0.00052125 -0.001 8.5e-05 0 -0.001 
8.46223e-17 0.0009575 0 -0.000715996 0.000586607 0 -0.000602797 0.000651965 0 
-0.000489599 0.000717321 0 -0.000376401 0.000782678 0 -0.000263202 0.000848036 0 
-0.000150004 0.000913393 0 -0.000835948 0.000469948 0 -0.000866 -0.000326786 0 
-0.000866 -0.000196071 0 -0.000866 -6.53571e-05 0 -0.000866 6.53571e-05 0 
-0.000866 0.000196071 0 -0.000866 0.000326786 0 -0.000835948 -0.000469948 0 
-0.000150004 -0.000913393 0 -0.000263202 -0.000848036 0 -0.000376401 -0.000782678 0 
-0.000489599 -0.000717321 0 -0.000602797 -0.000651965 0 -0.000715996 -0.000586607 0 
8.47648e-17 -0.0009575 0 0.000715996 -0.000586607 0 0.000602797 -0.000651965 0 
0.000489599 -0.000717321 0 0.000376401 -0.000782678 0 0.000263202 -0.000848036 0 
0.000150004 -0.000913393 0 0.000829194 -0.00047875 0 0.000866 0.000326786 0 
0.000866 0.000196071 0 0.000866 6.53571e-05 0 0.000866 -6.53571e-05 0 
0.000866 -0.000196071 0 0.000866 -0.000326786 0 0.000829194 0.00047875 0 
0.000150004 0.000913393 0 0.000263202 0.000848036 0 0.000376401 0.000782678 0 
0.000489599 0.000717321 0 0.000602797 0.000651965 0 0.000715996 0.000586607 0 
5.29966e-05 6.64557e-05 0 -1.89143e-05 8.28689e-05 0 -7.65824e-05 3.68801e-05 0 
-7.65824e-05 -3.68801e-05 0 -1.89143e-05 -8.28689e-05 0 5.29966e-05 -6.64557e-05 0 
8.46223e-17 0.0009575 -0.001 -0.000715996 0.000586607 -0.001 -0.000602797 0.000651965 -0.001 
-0.000489599 0.000717321 -0.001 -0.000376401 0.000782678 -0.001 -0.000263202 0.000848036 -0.001 
-0.000150004 0.000913393 -0.001 -0.000835948 0.000469948 -0.001 -0.000866 -0.000326786 -0.001 
-0.000866 -0.000196071 -0.001 -0.000866 -6.53571e-05 -0.001 -0.000866 6.53571e-05 -0.001 
-0.000866 0.000196071 -0.001 -0.000866 0.000326786 -0.001 -0.000835948 -0.000469948 -0.001 
-0.000150004 -0.000913393 -0.001 -0.000263202 -0.000848036 -0.001 -0.000376401 -0.000782678 -0.001 
-0.000489599 -0.000717321 -0.001 -0.000602797 -0.000651965 -0.001 -0.000715996 -0.000586607 -0.001 
8.47648e-17 -0.0009575 -0.001 0.000715996 -0.000586607 -0.001 0.000602797 -0.000651965 -0.001 
0.000489599 -0.000717321 -0.001 0.000376401 -0.000782678 -0.001 0.000263202 -0.000848036 -0.001 
0.000150004 -0.000913393 -0.001 0.000829194 -0.00047875 -0.001 0.000866 0.000326786 -0.001 
0.000866 0.000196071 -0.001 0.000866 6.53571e-05 -0.001 0.000866 -6.53571e-05 -0.001 
0.000866 -0.000196071 -0.001 0.000866 -0.000326786 -0.001 0.000829194 0.00047875 -0.001 
0.000150004 0.000913393 -0.001 0.000263202 0.000848036 -0.001 0.000376401 0.000782678 -0.001 
0.000489599 0.000717321 -0.001 0.000602797 0.000651965 -0.001 0.000715996 0.000586607 -0.001 
5.29966e-05 6.64557e-05 -0.001 -1.89143e-05 8.28689e-05 -0.001 -7.65824e-05 3.68801e-05 -0.001 
-7.65824e-05 -3.68801e-05 -0.001 -1.89143e-05 -8.28689e-05 -0.001 5.29966e-05 -6.64557e-05 -0.001 
0.000131234 6.38474e-05 0 0.00012964 -6.2443e-05 0 3.13827e-05 0.0001394 0 
3.12554e-05 -0.000136939 0 -0.000140461 8.25467e-19 0 -8.90565e-05 -0.000102707 0 
-9.04142e-05 0.000102872 0 -0.000765769 -0.00025965 0 -0.000756873 0.000262774 0 
-0.00015609 0.000787505 0 -0.000155807 -0.00079355 0 0.000605069 0.000528035 0 
0.000608694 -0.00052497 0 0.000744069 0.000116929 0 -0.000494418 0.000596218 0 
-0.000483866 -0.000584648 0 0.000269496 0.000702219 0 0.000263201 -0.000717324 0 
0.000754429 -0.000127825 0 -0.000748858 5.84659e-07 0 -0.000747838 0.000373886 0 
-0.0006542 0.000324842 0 -0.000645137 0.000210123 0 -0.000550884 0.000274171 0 
-0.000538857 0.000163195 0 -0.00045062 0.000224461 0 -0.000438393 0.000123907 0 
-0.000354088 0.000181668 0 -0.000363908 0.000282171 0 -0.000270361 0.000239477 0 
-0.000279138 0.000337653 0 -0.000188888 0.000294791 0 -0.000196448 0.000393271 0 
-0.000104767 0.000348259 0 -0.000113332 0.000449012 0 -2.01066e-05 0.000403223 0 
-2.89189e-05 0.000507105 0 6.9524e-05 0.000461596 0 -0.000213644 0.000490203 0 
7.33757e-05 0.000357726 0 0.000163331 0.00041299 0 0.000163359 0.000313022 0 
0.000248077 0.000366368 0 0.000250914 0.000265758 0 0.000335709 0.000322266 0 
0.000340555 0.000218148 0 0.000427299 0.000276717 0 0.000431508 0.000173093 0 
0.000328731 0.000425633 0 0.00034586 0.000114823 0 0.000435362 7.05241e-05 0 
0.000350892 1.5455e-05 0 0.000441547 -3.11896e-05 0 0.000353547 -8.47783e-05 0 
0.000445767 -0.000132964 0 0.000356135 -0.000186358 0 0.000449094 -0.000234674 0 
0.000359978 -0.000287876 0 0.00026856 -0.000240545 0 0.000271895 -0.000341045 0 
0.000181792 -0.00029305 0 0.00018533 -0.000392851 0 9.75701e-05 -0.00034483 0 
9.98764e-05 -0.000444884 0 8.75116e-06 -0.000396343 0 1.20916e-05 -0.000500496 0 
-7.83929e-05 -0.000449843 0 -8.1471e-05 -0.000347249 0 -0.000171566 -0.000403733 0 
-0.000169889 -0.000298891 0 -0.000259867 -0.000354132 0 -0.000257696 -0.000249137 0 
-0.00034313 -0.000299896 0 -0.000344514 -0.000199127 0 -0.000434309 -0.000250039 0 
-0.000169832 -0.000505815 0 -0.000435227 -0.000146227 0 0.000280331 -0.000442424 0 
-0.000340889 8.76793e-05 0 -0.000515252 4.06198e-05 0 6.50491e-05 0.000568253 0 
0.00053278 1.74743e-05 0 0.000522071 0.000229831 0 -0.00037162 0.000391659 0 
-0.000255272 -0.000150439 0 -0.000442893 -0.000350705 0 0.000450067 -0.000332559 0 
0.000545175 -0.000276306 0 -0.000527797 -0.000197598 0 0.000105306 -0.000551033 0 
1.45836e-05 -0.000609147 0 0.00017145 0.000214453 0 0.000515525 0.000341711 0 
0.000636086 0.000290368 0 -0.000558657 0.000404468 0 -4.01232e-05 0.000616718 0 
6.60192e-05 0.000696422 0 -0.000101806 0.0002546 0 0.000271142 -3.88908e-05 0 
0.000179455 -0.00018534 0 -8.79553e-05 -0.000254307 0 -0.000749267 -0.000373451 0 
-0.000655941 -0.000323397 0 0.000709746 0.000466718 0 0.000698426 -0.000473086 0 
-5.25801e-05 -0.00084886 0 -4.93005e-05 0.000848038 0 0.000617396 -0.000413362 0 
0.000702056 -0.000369817 0 0.000131459 -0.000679171 0 2.48171e-05 -0.000715924 0 
-0.000664217 -0.00042729 0 -0.000528828 -8.80444e-05 0 -0.000611101 -0.000136672 0 
-0.000426972 -4.45841e-05 0 0.000800669 0.000378216 0 0.000821144 -0.000415062 0 
7.2799e-05 0.00088254 0 6.81831e-05 -0.00087503 0 0.000104963 -0.000788946 0 
-7.40696e-05 -0.000660054 0 0.000126061 0.000809943 0 0.000764361 0.000295682 0 
0.000166862 0.000630623 0 0.000516462 -0.00046707 0 -0.000563585 -0.000389606 0 
-0.000622598 -1.40238e-05 0 0.000629891 0.000171529 0 2.5614e-06 -0.000299794 0 
8.6901e-05 -0.00024329 0 0.000272045 -0.000136982 0 -0.00075148 0.000138321 0 
0.000209366 -0.000599589 0 0.000324913 -0.000630055 0 0.000614044 0.00041245 0 
0.00049651 -0.000573327 0 0.000394822 -0.000507321 0 -0.000173714 -0.000206698 0 
0.000264897 5.63722e-05 0 0.000247997 0.000152811 0 -4.63327e-05 -0.000920208 0 
9.18688e-05 0.000258626 0 -5.54111e-06 0.000290558 0 -0.000184219 0.000201484 0 
-0.000263559 0.000142267 0 -0.000256427 5.13624e-05 0 -0.000336894 -2.06179e-06 0 
-0.000228499 -4.2388e-05 0 -0.00017589 0.000106626 0 -0.000769947 -0.000133367 0 
0.000767591 -0.000500293 0 -5.05874e-05 0.000737978 0 0.000754456 -3.51771e-06 0 
0.00064691 -6.15298e-05 0 0.000630483 -0.00018134 0 0.000749187 -0.000265543 0 
-0.000760805 -0.000462521 0 0.000638155 6.09315e-05 0 -4.46661e-05 0.000922995 0 
-2.37945e-05 0.000207237 0 0.000776979 0.000500181 0 -0.000605691 0.000527596 0 
-0.000377914 -0.000653727 0 -0.000372325 -0.000526022 0 -0.000275829 -0.000589621 0 
-0.000254285 -0.000710579 0 -0.000379307 0.000656222 0 -0.000379818 0.00052718 0 
-0.000266817 0.000721555 0 -0.000150544 0.000668174 0 0.000381963 0.00065079 0 
0.000493113 0.000590432 0 0.000505439 0.000463708 0 -0.000269094 0.000596608 0 
0.000385815 0.000532045 0 0.000283599 0.0005899 0 -0.000176405 -0.000108505 0 
-0.000278769 -0.000475415 0 0.000185395 2.33014e-06 0 0.000186773 0.000517571 0 
0.000540032 -8.68444e-05 0 -0.000600694 -0.000514877 0 -0.00063703 8.98033e-05 0 
-0.000459677 0.000335729 0 -0.000338836 -0.000100751 0 -0.000457327 0.000432721 0 
-8.72007e-06 -0.000210238 0 0.000156073 0.000129496 0 -7.70692e-05 -0.000555049 0 
0.00036091 -0.000389728 0 0.000531628 0.000120564 0 -0.000285451 0.000435562 0 
0.000192719 -0.000494604 0 0.00041642 0.00039368 0 -0.000135943 0.000554637 0 
-0.000170665 -0.000610079 0 -0.000666304 0.000434981 0 -0.000758736 0.000479231 0 
-0.000470189 -0.000458901 0 0.000203433 -8.59809e-05 0 0.000101846 0.000170114 0 
-0.00035513 -0.00040726 0 0.000100184 -0.000165831 0 2.96286e-05 0.00081537 0 
0.000720946 0.000381836 0 -0.000539809 -0.000292001 0 0.00052211 -0.000182426 0 
-6.41339e-05 -0.000753908 0 0.000638039 -0.000299861 0 -0.000605136 -0.000230182 0 
-3.41638e-05 -0.000145561 0 -0.000104037 0.000172396 0 -0.000808575 -0.00042774 0 
-0.000807207 -0.000465052 0 -0.00080817 0.000429771 0 -0.000806589 0.000469738 0 
-9.50634e-05 -0.000178909 0 0.000247777 0.000445058 0 1.48293e-05 -0.000814201 0 
-4.11555e-05 0.000140955 0 0.000276104 -0.000536845 0 0.000765969 -0.000436638 0 
0.000780871 -0.000362769 0 0.000424176 -0.000642018 0 0.00053413 -0.000368009 0 
-0.000416333 4.17911e-05 0 -0.000133891 -6.23822e-05 0 4.2574e-05 0.000206312 0 
[...]
POINT_DATA 626
VECTORS displacement float
-1.74037e-06 3.08964e-05 1.80199e-05
1.73212e-06 3.09154e-05 1.80648e-05
-2.59377e-05 1.69607e-05 1.80518e-05
-2.57926e-05 1.60028e-05 1.80165e-05
-2.76685e-05 1.39469e-05 1.80339e-05
-2.76615e-05 -1.39931e-05 1.80593e-05
-2.57638e-05 -1.60409e-05 1.80706e-05
-2.59339e-05 -1.69788e-05 1.81317e-05
-1.67396e-06 -3.09001e-05 1.80163e-05
1.7519e-06 -3.09016e-05 1.80666e-05
2.58951e-05 -1.69486e-05 1.80084e-05
2.76649e-05 -1.39108e-05 1.80082e-05
2.76204e-05 1.39634e-05 1.80564e-05
2.58665e-05 1.69609e-05 1.80109e-05
0 0 0
-1.74037e-06 3.08964e-05 -1.80199e-05
1.73212e-06 3.09154e-05 -1.80648e-05
-2.59377e-05 1.69607e-05 -1.80518e-05
-2.57926e-05 1.60028e-05 -1.80165e-05
-2.76685e-05 1.39469e-05 -1.80339e-05
-2.76615e-05 -1.39931e-05 -1.80593e-05
-2.57638e-05 -1.60409e-05 -1.80706e-05
-2.59339e-05 -1.69788e-05 -1.81317e-05
-1.67396e-06 -3.09001e-05 -1.80163e-05
1.7519e-06 -3.09016e-05 -1.80666e-05
2.58951e-05 -1.69486e-05 -1.80084e-05
2.76649e-05 -1.39108e-05 -1.80082e-05
2.76204e-05 1.39634e-05 -1.80564e-05
2.58665e-05 1.69609e-05 -1.80109e-05
0 0 0
2.48438e-08 3.00979e-05 1.79991e-05
-2.11017e-05 1.86772e-05 1.75157e-05
-1.72011e-05 1.9797e-05 1.68883e-05
-1.39814e-05 2.10156e-05 1.65233e-05
-1.11862e-05 2.26234e-05 1.65171e-05
-8.50798e-06 2.47873e-05 1.68689e-05
-5.55692e-06 2.75706e-05 1.75035e-05
-2.64002e-05 1.46517e-05 1.79984e-05
-2.67189e-05 -8.99533e-06 1.75433e-05
-2.57587e-05 -5.02666e-06 1.68934e-05
-2.52082e-05 -1.63338e-06 1.65397e-05
-2.52112e-05 1.60506e-06 1.65426e-05
-2.57509e-05 5.01406e-06 1.68916e-05
-2.67051e-05 8.96846e-06 1.75299e-05
-2.63872e-05 -1.4698e-05 1.80271e-05
-5.53021e-06 -2.7585e-05 1.74957e-05
-8.46058e-06 -2.47963e-05 1.68682e-05
-1.11495e-05 -2.26428e-05 1.65245e-05
-1.39452e-05 -2.10485e-05 1.65279e-05
-1.71836e-05 -1.98323e-05 1.69041e-05
-2.10953e-05 -1.87139e-05 1.75282e-05
8.96644e-08 -3.00827e-05 1.79942e-05
2.10852e-05 -1.85898e-05 1.74775e-05
1.72133e-05 -1.97255e-05 1.68404e-05
1.40083e-05 -2.09726e-05 1.648e-05
1.12044e-05 -2.25517e-05 1.65145e-05
8.56504e-06 -2.47346e-05 1.68417e-05
5.64364e-06 -2.75752e-05 1.7501e-05
2.60756e-05 -1.50315e-05 1.79932e-05
2.6667e-05 8.92235e-06 1.74676e-05
2.56746e-05 5.04072e-06 1.68759e-05
2.51604e-05 1.62052e-06 1.64915e-05
2.51575e-05 -1.59666e-06 1.64898e-05
2.57032e-05 -4.98861e-06 1.68558e-05
2.66491e-05 -8.90113e-06 1.74757e-05
2.60587e-05 1.50326e-05 1.79903e-05
5.62212e-06 2.75666e-05 1.74756e-05
8.49256e-06 2.47613e-05 1.68787e-05
1.11964e-05 2.25996e-05 1.64977e-05
1.3979e-05 2.09836e-05 1.64931e-05
1.71903e-05 1.97567e-05 1.68526e-05
2.10762e-05 1.85994e-05 1.74914e-05
0 0 0
0 0 0
0 0 0
0 0 0
0 0 0
0 0 0
2.48438e-08 3.00979e-05 -1.79991e-05
-2.11017e-05 1.86772e-05 -1.75157e-05
-1.72011e-05 1.9797e-05 -1.68883e-05
-1.39814e-05 2.10156e-05 -1.65233e-05
-1.11862e-05 2.26234e-05 -1.65171e-05
-8.50798e-06 2.47873e-05 -1.68689e-05
-5.55692e-06 2.75706e-05 -1.75035e-05
-2.64002e-05 1.46517e-05 -1.79984e-05
-2.67189e-05 -8.99533e-06 -1.75433e-05
-2.57587e-05 -5.02666e-06 -1.68934e-05
-2.52082e-05 -1.63338e-06 -1.65397e-05
-2.52112e-05 1.60506e-06 -1.65426e-05
-2.57509e-05 5.01406e-06 -1.68916e-05
-2.67051e-05 8.96846e-06 -1.75299e-05
-2.63872e-05 -1.4698e-05 -1.80271e-05
-5.53021e-06 -2.7585e-05 -1.74957e-05
-8.46058e-06 -2.47963e-05 -1.68682e-05
-1.11495e-05 -2.26428e-05 -1.65245e-05
-1.39452e-05 -2.10485e-05 -1.65279e-05
-1.71836e-05 -1.98323e-05 -1.69041e-05
-2.10953e-05 -1.87139e-05 -1.75282e-05
8.96644e-08 -3.00827e-05 -1.79942e-05
2.10852e-05 -1.85898e-05 -1.74775e-05
1.72133e-05 -1.97255e-05 -1.68404e-05
1.40083e-05 -2.09726e-05 -1.648e-05
1.12044e-05 -2.25517e-05 -1.65145e-05
8.56504e-06 -2.47346e-05 -1.68417e-05
5.64364e-06 -2.75752e-05 -1.7501e-05
2.60756e-05 -1.50315e-05 -1.79932e-05
2.6667e-05 8.92235e-06 -1.74676e-05
2.56746e-05 5.04072e-06 -1.68759e-05
2.51604e-05 1.62052e-06 -1.64915e-05
2.51575e-05 -1.59666e-06 -1.64898e-05
2.57032e-05 -4.98861e-06 -1.68558e-05
2.66491e-05 -8.90113e-06 -1.74757e-05
2.60587e-05 1.50326e-05 -1.79903e-05
5.62212e-06 2.75666e-05 -1.74756e-05
8.49256e-06 2.47613e-05 -1.68787e-05
1.11964e-05 2.25996e-05 -1.64977e-05
1.3979e-05 2.09836e-05 -1.64931e-05
1.71903e-05 1.97567e-05 -1.68526e-05
2.10762e-05 1.85994e-05 -1.74914e-05
0 0 0
0 0 0
0 0 0
0 0 0
0 0 0
0 0 0
1.79121e-06 8.57567e-07 4.54503e-06
1.73543e-06 -8.23983e-07 4.45374e-06
4.31359e-07 1.8471e-06 4.48803e-06
4.355e-07 -1.77821e-06 4.34922e-06
-1.84496e-06 2.09282e-08 4.41539e-06
-1.12156e-06 -1.30709e-06 4.14447e-06
-1.15763e-06 1.30502e-06 4.19317e-06
-2.24717e-05 -7.27449e-06 1.69672e-05
-2.21557e-05 7.35821e-06 1.69359e-05
-4.85137e-06 2.28566e-05 1.69044e-05
-4.84885e-06 -2.30892e-05 1.69312e-05
1.73894e-05 1.56067e-05 1.68972e-05
1.75367e-05 -1.55078e-05 1.69065e-05
2.10353e-05 3.15822e-06 1.62932e-05
-1.39278e-05 1.712e-05 1.64468e-05
-1.35665e-05 -1.67108e-05 1.63786e-05
7.75368e-06 1.97836e-05 1.63e-05
7.67081e-06 -2.02731e-05 1.63711e-05
2.14333e-05 -3.43756e-06 1.63688e-05
-2.10645e-05 6.57088e-09 1.62157e-05
-2.23789e-05 1.09795e-05 1.74198e-05
-1.87168e-05 9.23787e-06 1.65952e-05
-1.79503e-05 5.78502e-06 1.60058e-05
-1.49572e-05 7.43502e-06 1.54571e-05
-1.41993e-05 4.3001e-06 1.48019e-05
-1.15125e-05 5.73387e-06 1.40687e-05
-1.08394e-05 3.06345e-06 1.33491e-05
-8.38631e-06 4.29761e-06 1.2382e-05
-9.04319e-06 7.00133e-06 1.34317e-05
-6.19378e-06 5.47938e-06 1.16682e-05
-6.81662e-06 8.23534e-06 1.30561e-05
-4.27431e-06 6.66387e-06 1.14302e-05
-4.7918e-06 9.59349e-06 1.30701e-05
-2.39688e-06 7.98004e-06 1.17021e-05
-2.80801e-06 1.1148e-05 1.34502e-05
-4.74605e-07 9.57907e-06 1.24784e-05
-7.37065e-07 1.29742e-05 1.41155e-05
1.7281e-06 1.14979e-05 1.35101e-05
-5.52498e-06 1.26781e-05 1.44101e-05
1.68228e-06 8.21028e-06 1.17267e-05
3.99733e-06 1.01036e-05 1.3127e-05
3.69922e-06 7.0862e-06 1.14579e-05
6.05703e-06 8.95133e-06 1.30895e-05
5.75722e-06 6.09663e-06 1.17147e-05
8.34367e-06 8.0065e-06 1.34673e-05
8.09195e-06 5.18648e-06 1.24778e-05
1.09349e-05 7.08466e-06 1.41207e-05
1.07274e-05 4.31533e-06 1.34743e-05
8.51556e-06 1.10181e-05 1.44338e-05
7.92449e-06 2.63934e-06 1.17065e-05
1.06278e-05 1.73422e-06 1.30802e-05
7.93554e-06 3.58165e-07 1.14353e-05
1.07879e-05 -7.57808e-07 1.31002e-05
8.09816e-06 -1.93457e-06 1.16883e-05
1.10791e-05 -3.30713e-06 1.34592e-05
8.45543e-06 -4.4165e-06 1.24216e-05
1.14837e-05 -5.9924e-06 1.40833e-05
8.94015e-06 -7.12582e-06 1.34035e-05
6.13732e-06 -5.48529e-06 1.16206e-05
6.63315e-06 -8.28669e-06 1.29946e-05
4.09844e-06 -6.57765e-06 1.1291e-05
4.51565e-06 -9.53457e-06 1.29647e-05
2.23858e-06 -7.84525e-06 1.15768e-05
2.48057e-06 -1.0983e-05 1.33265e-05
2.24914e-07 -9.35789e-06 1.23314e-05
3.29444e-07 -1.27476e-05 1.40079e-05
-1.91215e-06 -1.11315e-05 1.33526e-05
-1.83802e-06 -7.90848e-06 1.15616e-05
-4.16078e-06 -9.85797e-06 1.30612e-05
-3.80765e-06 -6.71941e-06 1.12972e-05
-6.33477e-06 -8.64722e-06 1.30755e-05
-5.88151e-06 -5.68856e-06 1.16078e-05
-8.4851e-06 -7.42302e-06 1.33552e-05
-8.15377e-06 -4.72009e-06 1.23863e-05
-1.10763e-05 -6.39162e-06 1.40439e-05
-4.364e-06 -1.31002e-05 1.44068e-05
-1.07903e-05 -3.6444e-06 1.34146e-05
7.2135e-06 -1.13529e-05 1.42465e-05
-7.72889e-06 1.97941e-06 1.14726e-05
-1.31931e-05 1.03325e-06 1.41846e-05
1.72607e-06 1.50561e-05 1.49242e-05
1.3744e-05 4.61428e-07 1.43611e-05
1.38187e-05 6.08931e-06 1.49037e-05
-9.67704e-06 1.01784e-05 1.45055e-05
-5.4073e-06 -3.19252e-06 1.01646e-05
-1.16929e-05 -9.28092e-06 1.48614e-05
1.18614e-05 -8.74475e-06 1.47595e-05
1.47554e-05 -7.46027e-06 1.53743e-05
-1.39351e-05 -5.23463e-06 1.48339e-05
2.7909e-06 -1.44905e-05 1.47686e-05
4.23812e-07 -1.647e-05 1.53687e-05
3.51286e-06 4.38997e-06 9.56477e-06
1.39856e-05 9.28246e-06 1.54624e-05
1.78983e-05 8.13024e-06 1.62695e-05
-1.56472e-05 1.13747e-05 1.62026e-05
-1.09213e-06 1.67392e-05 1.54661e-05
1.90339e-06 1.95861e-05 1.62798e-05
-2.08855e-06 5.21181e-06 9.58124e-06
5.54516e-06 -7.83361e-07 9.5778e-06
3.58034e-06 -3.6778e-06 9.06663e-06
-1.77683e-06 -5.1704e-06 9.43354e-06
-2.24273e-05 -1.09906e-05 1.74405e-05
-1.8764e-05 -9.22464e-06 1.66192e-05
2.11088e-05 1.41385e-05 1.74717e-05
2.07155e-05 -1.42911e-05 1.74018e-05
-1.76122e-06 -2.53995e-05 1.7477e-05
-1.67892e-06 2.53636e-05 1.74817e-05
1.76808e-05 -1.18852e-05 1.66552e-05
2.06078e-05 -1.07314e-05 1.7083e-05
3.76881e-06 -1.89509e-05 1.61087e-05
7.6713e-07 -2.03089e-05 1.64513e-05
-1.93695e-05 -1.26273e-05 1.71101e-05
-1.3707e-05 -2.30288e-06 1.4445e-05
-1.65631e-05 -3.69484e-06 1.54484e-05
-1.03582e-05 -1.09452e-06 1.29287e-05
2.44067e-05 1.10525e-05 1.76174e-05
2.545e-05 -1.23803e-05 1.78134e-05
2.64412e-06 2.66765e-05 1.76262e-05
2.51613e-06 -2.63647e-05 1.75952e-05
3.33324e-06 -2.29897e-05 1.69963e-05
-2.05018e-06 -1.82869e-05 1.59206e-05
4.05143e-06 2.37477e-05 1.70974e-05
2.25726e-05 8.36403e-06 1.70863e-05
4.60532e-06 1.72823e-05 1.56975e-05
1.4401e-05 -1.30957e-05 1.61067e-05
-1.57592e-05 -1.09649e-05 1.61837e-05
-1.67699e-05 -3.80755e-07 1.53484e-05
1.72749e-05 4.67908e-06 1.56959e-05
6.5419e-08 -6.37702e-06 1.02497e-05
1.73899e-06 -4.84086e-06 9.07711e-06
5.84102e-06 -2.93077e-06 1.03602e-05
-2.14052e-05 3.74378e-06 1.64274e-05
5.71913e-06 -1.62454e-05 1.54785e-05
9.06708e-06 -1.74675e-05 1.59671e-05
1.75402e-05 1.186e-05 1.66403e-05
1.39689e-05 -1.63524e-05 1.63699e-05
1.07208e-05 -1.37643e-05 1.55207e-05
-3.54234e-06 -4.21351e-06 9.4846e-06
5.39058e-06 1.1367e-06 9.48288e-06
5.20969e-06 3.21771e-06 1.003e-05
-1.74632e-06 -2.83017e-05 1.78421e-05
1.88906e-06 5.29048e-06 9.5681e-06
-1.1364e-07 6.09522e-06 1.00215e-05
-3.77891e-06 4.1212e-06 9.56208e-06
-5.61361e-06 3.02929e-06 1.02675e-05
-5.15734e-06 1.03903e-06 9.19799e-06
-7.51487e-06 -6.1635e-08 1.11528e-05
-4.32772e-06 -8.0904e-07 8.36788e-06
-3.10392e-06 1.86953e-06 7.36194e-06
-2.20409e-05 -3.60131e-06 1.64842e-05
2.33627e-05 -1.56586e-05 1.78014e-05
-1.50442e-06 2.11293e-05 1.665e-05
2.12231e-05 -8.43642e-08 1.61948e-05
1.75905e-05 -1.64386e-06 1.5552e-05
1.73165e-05 -4.9328e-06 1.57408e-05
2.18514e-05 -7.43758e-06 1.6881e-05
-2.31391e-05 -1.4228e-05 1.7798e-05
1.72936e-05 1.64593e-06 1.54793e-05
-1.73058e-06 2.842e-05 1.78593e-05
-4.21439e-07 3.67786e-06 7.48294e-06
2.37277e-05 1.57128e-05 1.78498e-05
-1.74654e-05 1.56134e-05 1.69423e-05
-1.06069e-05 -1.84326e-05 1.62241e-05
-1.00815e-05 -1.43167e-05 1.55423e-05
-7.49432e-06 -1.6066e-05 1.55925e-05
-7.30874e-06 -2.0084e-05 1.63639e-05
-1.0685e-05 1.85016e-05 1.62358e-05
-1.03288e-05 1.43583e-05 1.55898e-05
-7.7584e-06 2.04552e-05 1.64128e-05
-4.24529e-06 1.85761e-05 1.60224e-05
1.07402e-05 1.83122e-05 1.61952e-05
1.38665e-05 1.6904e-05 1.63996e-05
1.40166e-05 1.29494e-05 1.60207e-05
-7.34838e-06 1.62591e-05 1.56089e-05
1.05063e-05 1.4521e-05 1.56156e-05
7.73487e-06 1.60635e-05 1.55844e-05
-3.11177e-06 -1.89591e-06 7.38101e-06
-7.24488e-06 -1.24002e-05 1.4598e-05
3.00427e-06 4.02995e-08 6.59027e-06
4.86402e-06 1.34989e-05 1.45909e-05
1.40513e-05 -2.2564e-06 1.45434e-05
-1.72582e-05 -1.51887e-05 1.69129e-05
-1.73354e-05 2.41598e-06 1.55684e-05
-1.21831e-05 8.89617e-06 1.49155e-05
-7.69287e-06 -2.28873e-06 1.15343e-05
-1.24275e-05 1.17915e-05 1.55107e-05
-1.42521e-07 -3.74857e-06 7.54173e-06
2.72614e-06 2.26868e-06 7.24002e-06
-2.00033e-06 -1.46246e-05 1.47804e-05
9.34868e-06 -1.00506e-05 1.43627e-05
1.38364e-05 3.15226e-06 1.4539e-05
-7.32722e-06 1.11798e-05 1.42339e-05
4.98848e-06 -1.27524e-05 1.43427e-05
1.10124e-05 1.04121e-05 1.48918e-05
-3.59009e-06 1.46593e-05 1.48802e-05
-4.62717e-06 -1.65872e-05 1.55195e-05
-1.94713e-05 1.28687e-05 1.71282e-05
-2.3084e-05 1.48305e-05 1.78088e-05
-1.28818e-05 -1.26633e-05 1.57826e-05
3.75509e-06 -1.58372e-06 7.89384e-06
1.76177e-06 2.91793e-06 7.07283e-06
-9.21428e-06 -1.05909e-05 1.45048e-05
1.72518e-06 -2.81897e-06 6.91974e-06
9.92844e-07 2.40725e-05 1.72751e-05
2.13286e-05 1.11733e-05 1.72652e-05
-1.46385e-05 -7.9392e-06 1.54562e-05
1.36839e-05 -4.77788e-06 1.46633e-05
-1.90634e-06 -2.17233e-05 1.67705e-05
1.80277e-05 -8.40383e-06 1.63096e-05
-1.6649e-05 -6.31724e-06 1.57526e-05
-4.32288e-07 -1.91961e-06 4.79084e-06
-1.80267e-06 2.99097e-06 7.16541e-06
-2.50053e-05 -1.29578e-05 1.78875e-05
-2.50803e-05 -1.44802e-05 1.79671e-05
-2.49985e-05 1.30096e-05 1.78712e-05
-2.50712e-05 1.46226e-05 1.79472e-05
-1.64599e-06 -3.12018e-06 7.19809e-06
6.31694e-06 1.13486e-05 1.40507e-05
5.32709e-07 -2.40418e-05 1.72688e-05
-5.22039e-07 1.807e-06 4.63763e-06
7.39433e-06 -1.43182e-05 1.5124e-05
2.32597e-05 -1.31849e-05 1.76944e-05
2.35889e-05 -1.05183e-05 1.7457e-05
1.19667e-05 -1.81779e-05 1.62622e-05
1.47037e-05 -1.01284e-05 1.57657e-05
-1.00101e-05 9.99545e-07 1.27317e-05
-1.73757e-06 -8.14755e-07 4.71596e-06
7.67906e-07 3.70277e-06 7.56066e-06
2.33962e-06 -1.99423e-06 6.54462e-06
2.01199e-05 5.8872e-06 1.64222e-05
5.06081e-06 2.05586e-05 1.64645e-05
3.41464e-07 -2.76286e-05 1.78194e-05
-1.7288e-06 7.08119e-07 4.59902e-06
-3.20675e-06 6.22132e-07 6.81301e-06
3.57182e-06 1.47319e-06 7.62402e-06
4.9825e-07 2.82711e-05 1.78924e-05
2.47142e-05 1.37086e-05 1.78836e-05
-2.0291e-05 1.5507e-05 1.73954e-05
1.17705e-06 1.36256e-06 4.45278e-06
-2.06016e-05 -1.56992e-05 1.74937e-05
-1.89647e-05 -2.31804e-06 1.5916e-05
-1.95238e-05 -5.57495e-06 1.63012e-05
9.04342e-07 -3.24293e-06 6.99464e-06
-4.35806e-06 -1.97535e-05 1.62908e-05
-7.92322e-06 1.38099e-05 1.50728e-05
1.16411e-06 -1.30236e-06 4.33241e-06
1.19132e-05 -1.12084e-05 1.52635e-05
6.12167e-06 -2.26547e-05 1.67882e-05
-1.44959e-05 1.43293e-05 1.62926e-05
7.91507e-06 1.32977e-05 1.49201e-05
1.79121e-06 8.57567e-07 -4.54503e-06
1.73543e-06 -8.23983e-07 -4.45374e-06
4.31359e-07 1.8471e-06 -4.48803e-06
4.355e-07 -1.77821e-06 -4.34922e-06
-1.84496e-06 2.09282e-08 -4.41539e-06
-1.12156e-06 -1.30709e-06 -4.14447e-06
-1.15763e-06 1.30502e-06 -4.19317e-06
-2.24717e-05 -7.27449e-06 -1.69672e-05
-2.21557e-05 7.35821e-06 -1.69359e-05
-4.85137e-06 2.28566e-05 -1.69044e-05
-4.84885e-06 -2.30892e-05 -1.69312e-05
1.73894e-05 1.56067e-05 -1.68972e-05
1.75367e-05 -1.55078e-05 -1.69065e-05
2.10353e-05 3.15822e-06 -1.62932e-05
-1.39278e-05 1.712e-05 -1.64468e-05
-1.35665e-05 -1.67108e-05 -1.63786e-05
7.75368e-06 1.97836e-05 -1.63e-05
7.67081e-06 -2.02731e-05 -1.63711e-05
2.14333e-05 -3.43756e-06 -1.63688e-05
-2.10645e-05 6.57088e-09 -1.62157e-05
-2.23789e-05 1.09795e-05 -1.74198e-05
-1.87168e-05 9.23787e-06 -1.65952e-05
-1.79503e-05 5.78502e-06 -1.60058e-05
-1.49572e-05 7.43502e-06 -1.54571e-05
-1.41993e-05 4.3001e-06 -1.48019e-05
-1.15125e-05 5.73387e-06 -1.40687e-05
-1.08394e-05 3.06345e-06 -1.33491e-05
-8.38631e-06 4.29761e-06 -1.2382e-05
-9.04319e-06 7.00133e-06 -1.34317e-05
-6.19378e-06 5.47938e-06 -1.16682e-05
-6.81662e-06 8.23534e-06 -1.30561e-05
-4.27431e-06 6.66387e-06 -1.14302e-05
-4.7918e-06 9.59349e-06 -1.30701e-05
-2.39688e-06 7.98004e-06 -1.17021e-05
-2.80801e-06 1.1148e-05 -1.34502e-05
-4.74605e-07 9.57907e-06 -1.24784e-05
-7.37065e-07 1.29742e-05 -1.41155e-05
1.7281e-06 1.14979e-05 -1.35101e-05
-5.52498e-06 1.26781e-05 -1.44101e-05
1.68228e-06 8.21028e-06 -1.17267e-05
3.99733e-06 1.01036e-05 -1.3127e-05
3.69922e-06 7.0862e-06 -1.14579e-05
6.05703e-06 8.95133e-06 -1.30895e-05
5.75722e-06 6.09663e-06 -1.17147e-05
8.34367e-06 8.0065e-06 -1.34673e-05
8.09195e-06 5.18648e-06 -1.24778e-05
1.09349e-05 7.08466e-06 -1.41207e-05
1.07274e-05 4.31533e-06 -1.34743e-05
8.51556e-06 1.10181e-05 -1.44338e-05
7.92449e-06 2.63934e-06 -1.17065e-05
1.06278e-05 1.73422e-06 -1.30802e-05
7.93554e-06 3.58165e-07 -1.14353e-05
1.07879e-05 -7.57808e-07 -1.31002e-05
8.09816e-06 -1.93457e-06 -1.16883e-05
1.10791e-05 -3.30713e-06 -1.34592e-05
8.45543e-06 -4.4165e-06 -1.24216e-05
1.14837e-05 -5.9924e-06 -1.40833e-05
8.94015e-06 -7.12582e-06 -1.34035e-05
6.13732e-06 -5.48529e-06 -1.16206e-05
6.63315e-06 -8.28669e-06 -1.29946e-05
4.09844e-06 -6.57765e-06 -1.1291e-05
4.51565e-06 -9.53457e-06 -1.29647e-05
2.23858e-06 -7.84525e-06 -1.15768e-05
2.48057e-06 -1.0983e-05 -1.33265e-05
2.24914e-07 -9.35789e-06 -1.23314e-05
3.29444e-07 -1.27476e-05 -1.40079e-05
-1.91215e-06 -1.11315e-05 -1.33526e-05
-1.83802e-06 -7.90848e-06 -1.15616e-05
-4.16078e-06 -9.85797e-06 -1.30612e-05
-3.80765e-06 -6.71941e-06 -1.12972e-05
-6.33477e-06 -8.64722e-06 -1.30755e-05
-5.88151e-06 -5.68856e-06 -1.16078e-05
-8.4851e-06 -7.42302e-06 -1.33552e-05
-8.15377e-06 -4.72009e-06 -1.23863e-05
-1.10763e-05 -6.39162e-06 -1.40439e-05
-4.364e-06 -1.31002e-05 -1.44068e-05
-1.07903e-05 -3.6444e-06 -1.34146e-05
7.2135e-06 -1.13529e-05 -1.42465e-05
-7.72889e-06 1.97941e-06 -1.14726e-05
-1.31931e-05 1.03325e-06 -1.41846e-05
1.72607e-06 1.50561e-05 -1.49242e-05
1.3744e-05 4.61428e-07 -1.43611e-05
1.38187e-05 6.08931e-06 -1.49037e-05
-9.67704e-06 1.01784e-05 -1.45055e-05
-5.4073e-06 -3.19252e-06 -1.01646e-05
-1.16929e-05 -9.28092e-06 -1.48614e-05
1.18614e-05 -8.74475e-06 -1.47595e-05
1.47554e-05 -7.46027e-06 -1.53743e-05
-1.39351e-05 -5.23463e-06 -1.48339e-05
2.7909e-06 -1.44905e-05 -1.47686e-05
4.23812e-07 -1.647e-05 -1.53687e-05
3.51286e-06 4.38997e-06 -9.56477e-06
1.39856e-05 9.28246e-06 -1.54624e-05
1.78983e-05 8.13024e-06 -1.62695e-05
-1.56472e-05 1.13747e-05 -1.62026e-05
-1.09213e-06 1.67392e-05 -1.54661e-05
1.90339e-06 1.95861e-05 -1.62798e-05
-2.08855e-06 5.21181e-06 -9.58124e-06
5.54516e-06 -7.83361e-07 -9.5778e-06
3.58034e-06 -3.6778e-06 -9.06663e-06
-1.77683e-06 -5.1704e-06 -9.43354e-06
-2.24273e-05 -1.09906e-05 -1.74405e-05
-1.8764e-05 -9.22464e-06 -1.66192e-05
2.11088e-05 1.41385e-05 -1.74717e-05
2.07155e-05 -1.42911e-05 -1.74018e-05
-1.76122e-06 -2.53995e-05 -1.7477e-05
-1.67892e-06 2.53636e-05 -1.74817e-05
1.76808e-05 -1.18852e-05 -1.66552e-05
2.06078e-05 -1.07314e-05 -1.7083e-05
3.76881e-06 -1.89509e-05 -1.61087e-05
7.6713e-07 -2.03089e-05 -1.64513e-05
-1.93695e-05 -1.26273e-05 -1.71101e-05
-1.3707e-05 -2.30288e-06 -1.4445e-05
-1.65631e-05 -3.69484e-06 -1.54484e-05
-1.03582e-05 -1.09452e-06 -1.29287e-05
2.44067e-05 1.10525e-05 -1.76174e-05
2.545e-05 -1.23803e-05 -1.78134e-05
2.64412e-06 2.66765e-05 -1.76262e-05
2.51613e-06 -2.63647e-05 -1.75952e-05
3.33324e-06 -2.29897e-05 -1.69963e-05
-2.05018e-06 -1.82869e-05 -1.59206e-05
4.05143e-06 2.37477e-05 -1.70974e-05
2.25726e-05 8.36403e-06 -1.70863e-05
4.60532e-06 1.72823e-05 -1.56975e-05
1.4401e-05 -1.30957e-05 -1.61067e-05
-1.57592e-05 -1.09649e-05 -1.61837e-05
-1.67699e-05 -3.80755e-07 -1.53484e-05
1.72749e-05 4.67908e-06 -1.56959e-05
6.5419e-08 -6.37702e-06 -1.02497e-05
1.73899e-06 -4.84086e-06 -9.07711e-06
5.84102e-06 -2.93077e-06 -1.03602e-05
-2.14052e-05 3.74378e-06 -1.64274e-05
5.71913e-06 -1.62454e-05 -1.54785e-05
9.06708e-06 -1.74675e-05 -1.59671e-05
1.75402e-05 1.186e-05 -1.66403e-05
1.39689e-05 -1.63524e-05 -1.63699e-05
1.07208e-05 -1.37643e-05 -1.55207e-05
-3.54234e-06 -4.21351e-06 -9.4846e-06
5.39058e-06 1.1367e-06 -9.48288e-06
5.20969e-06 3.21771e-06 -1.003e-05
-1.74632e-06 -2.83017e-05 -1.78421e-05
1.88906e-06 5.29048e-06 -9.5681e-06
-1.1364e-07 6.09522e-06 -1.00215e-05
-3.77891e-06 4.1212e-06 -9.56208e-06
-5.61361e-06 3.02929e-06 -1.02675e-05
-5.15734e-06 1.03903e-06 -9.19799e-06
-7.51487e-06 -6.1635e-08 -1.11528e-05
-4.32772e-06 -8.0904e-07 -8.36788e-06
-3.10392e-06 1.86953e-06 -7.36194e-06
-2.20409e-05 -3.60131e-06 -1.64842e-05
2.33627e-05 -1.56586e-05 -1.78014e-05
-1.50442e-06 2.11293e-05 -1.665e-05
2.12231e-05 -8.43642e-08 -1.61948e-05
1.75905e-05 -1.64386e-06 -1.5552e-05
1.73165e-05 -4.9328e-06 -1.57408e-05
2.18514e-05 -7.43758e-06 -1.6881e-05
-2.31391e-05 -1.4228e-05 -1.7798e-05
1.72936e-05 1.64593e-06 -1.54793e-05
-1.73058e-06 2.842e-05 -1.78593e-05