# vtk DataFile Version 3.0
vtk output at time 4245
ASCII
DATASET UNSTRUCTURED_GRID
POINTS 626 float
-3.68058e-05 0.000978749 0 3.68058e-05 0.000978749 0 -0.000829194 0.00052125 0 
-0.0008235 0.0005 0 -0.000866 0.0004575 0 -0.000866 -0.0004575 0 
-0.0008235 -0.0005 0 -0.000829194 -0.00052125 0 -3.68058e-05 -0.000978749 0 
3.68058e-05 -0.000978749 0 0.000829194 -0.00052125 0 0.000866 -0.0004575 0 
0.000866 0.0004575 0 0.000829194 0.00052125 0 8.5e-05 0 0 
-3.68058e-05 0.000978749 -0.001 3.68058e-05 0.000978749 -0.001 -0.000829194 0.00052125 -0.001 
-0.0008235 0.0005 -0.001 -0.000866 0.0004575 -0.001 -0.000866 -0.0004575 -0.001 
-0.0008235 -0.0005 -0.001 -0.000829194 -0.00052125 -0.001 -3.68058e-05 -0.000978749 -0.001 
3.68058e-05 -0.000978749 -0.001 0.000829194 -0.00052125 -0.001 0.000866 -0.0004575 -0.001 
0.000866 0.0004575 -0.001 0.000829194 0.00052125 -0.001 8.5e-05 0 -0.001 
8.46223e-17 0.0009575 0 -0.000715996 0.000586607 0 -0.000602797 0.000651965 0 
-0.000489599 0.000717321 0 -0.000376401 0.000782678 0 -0.000263202 0.000848036 0 
-0.000150004 0.000913393 0 -0.000835948 0.000469948 0 -0.000866 -0.000326786 0 
-0.000866 -0.000196071 0 -0.000866 -6.53571e-05 0 -0.000866 6.53571e-05 0 
-0.000866 0.000196071 0 -0.000866 0.000326786 0 -0.000835948 -0.000469948 0 
-0.000150004 -0.000913393 0 -0.000263202 -0.000848036 0 -0.000376401 -0.000782678 0 
-0.000489599 -0.000717321 0 -0.000602797 -0.000651965 0 -0.000715996 -0.000586607 0 
8.47648e-17 -0.0009575 0 0.000715996 -0.000586607 0 0.000602797 -0.000651965 0 
0.000489599 -0.000717321 0 0.000376401 -0.000782678 0 0.000263202 -0.000848036 0 
0.000150004 -0.000913393 0 0.000829194 -0.00047875 0 0.000866 0.000326786 0 
0.000866 0.000196071 0 0.000866 6.53571e-05 0 0.000866 -6.53571e-05 0 
0.000866 -0.000196071 0 0.000866 -0.000326786 0 0.000829194 0.00047875 0 
0.000150004 0.000913393 0 0.000263202 0.000848036 0 0.000376401 0.000782678 0 
0.000489599 0.000717321 0 0.000602797 0.000651965 0 0.000715996 0.000586607 0 
5.29966e-05 6.64557e-05 0 -1.89143e-05 8.28689e-05 0 -7.65824e-05 3.68801e-05 0 
-7.65824e-05 -3.68801e-05 0 -1.89143e-05 -8.28689e-05 0 5.29966e-05 -6.64557e-05 0 
8.46223e-17 0.0009575 -0.001 -0.000715996 0.000586607 -0.001 -0.000602797 0.000651965 -0.001 
-0.000489599 0.000717321 -0.001 -0.000376401 0.000782678 -0.001 -0.000263202 0.000848036 -0.001 
-0.000150004 0.000913393 -0.001 -0.000835948 0.000469948 -0.001 -0.000866 -0.000326786 -0.001 
-0.000866 -0.000196071 -0.001 -0.000866 -6.53571e-05 -0.001 -0.000866 6.53571e-05 -0.001 
-0.000866 0.000196071 -0.001 -0.000866 0.000326786 -0.001 -0.000835948 -0.000469948 -0.001 
-0.000150004 -0.000913393 -0.001 -0.000263202 -0.000848036 -0.001 -0.000376401 -0.000782678 -0.001 
-0.000489599 -0.000717321 -0.001 -0.000602797 -0.000651965 -0.001 -0.000715996 -0.000586607 -0.001 
8.47648e-17 -0.0009575 -0.001 0.000715996 -0.000586607 -0.001 0.000602797 -0.000651965 -0.001 
0.000489599 -0.000717321 -0.001 0.000376401 -0.000782678 -0.001 0.000263202 -0.000848036 -0.001 
0.000150004 -0.000913393 -0.001 0.000829194 -0.00047875 -0.001 0.000866 0.000326786 -0.001 
0.000866 0.000196071 -0.001 0.000866 6.53571e-05 -0.001 0.000866 -6.53571e-05 -0.001 
0.000866 -0.000196071 -0.001 0.000866 -0.000326786 -0.001 0.000829194 0.00047875 -0.001 
0.000150004 0.000913393 -0.001 0.000263202 0.000848036 -0.001 0.000376401 0.000782678 -0.001 
0.000489599 0.000717321 -0.001 0.000602797 0.000651965 -0.001 0.000715996 0.000586607 -0.001 
5.29966e-05 6.64557e-05 -0.001 -1.89143e-05 8.28689e-05 -0.001 -7.65824e-05 3.68801e-05 -0.001 
-7.65824e-05 -3.68801e-05 -0.001 -1.89143e-05 -8.28689e-05 -0.001 5.29966e-05 -6.64557e-05 -0.001 
0.000131234 6.38474e-05 0 0.00012964 -6.2443e-05 0 3.13827e-05 0.0001394 0 
3.12554e-05 -0.000136939 0 -0.000140461 8.25467e-19 0 -8.90565e-05 -0.000102707 0 
-9.04142e-05 0.000102872 0 -0.000765769 -0.00025965 0 -0.000756873 0.000262774 0 
-0.00015609 0.000787505 0 -0.000155807 -0.00079355 0 0.000605069 0.000528035 0 
0.000608694 -0.00052497 0 0.000744069 0.000116929 0 -0.000494418 0.000596218 0 
-0.000483866 -0.000584648 0 0.000269496 0.000702219 0 0.000263201 -0.000717324 0 
0.000754429 -0.000127825 0 -0.000748858 5.84659e-07 0 -0.000747838 0.000373886 0 
-0.0006542 0.000324842 0 -0.000645137 0.000210123 0 -0.000550884 0.000274171 0 
-0.000538857 0.000163195 0 -0.00045062 0.000224461 0 -0.000438393 0.000123907 0 
-0.000354088 0.000181668 0 -0.000363908 0.000282171 0 -0.000270361 0.000239477 0 
-0.000279138 0.000337653 0 -0.000188888 0.000294791 0 -0.000196448 0.000393271 0 
-0.000104767 0.000348259 0 -0.000113332 0.000449012 0 -2.01066e-05 0.000403223 0 
-2.89189e-05 0.000507105 0 6.9524e-05 0.000461596 0 -0.000213644 0.000490203 0 
7.33757e-05 0.000357726 0 0.000163331 0.00041299 0 0.000163359 0.000313022 0 
0.000248077 0.000366368 0 0.000250914 0.000265758 0 0.000335709 0.000322266 0 
0.000340555 0.000218148 0 0.000427299 0.000276717 0 0.000431508 0.000173093 0 
0.000328731 0.000425633 0 0.00034586 0.000114823 0 0.000435362 7.05241e-05 0 
0.000350892 1.5455e-05 0 0.000441547 -3.11896e-05 0 0.000353547 -8.47783e-05 0 
0.000445767 -0.000132964 0 0.000356135 -0.000186358 0 0.000449094 -0.000234674 0 
0.000359978 -0.000287876 0 0.00026856 -0.000240545 0 0.000271895 -0.000341045 0 
0.000181792 -0.00029305 0 0.00018533 -0.000392851 0 9.75701e-05 -0.00034483 0 
9.98764e-05 -0.000444884 0 8.75116e-06 -0.000396343 0 1.20916e-05 -0.000500496 0 
-7.83929e-05 -0.000449843 0 -8.1471e-05 -0.000347249 0 -0.000171566 -0.000403733 0 
-0.000169889 -0.000298891 0 -0.000259867 -0.000354132 0 -0.000257696 -0.000249137 0 
-0.00034313 -0.000299896 0 -0.000344514 -0.000199127 0 -0.000434309 -0.000250039 0 
-0.000169832 -0.000505815 0 -0.000435227 -0.000146227 0 0.000280331 -0.000442424 0 
-0.000340889 8.76793e-05 0 -0.000515252 4.06198e-05 0 6.50491e-05 0.000568253 0 
0.00053278 1.74743e-05 0 0.000522071 0.000229831 0 -0.00037162 0.000391659 0 
-0.000255272 -0.000150439 0 -0.000442893 -0.000350705 0 0.000450067 -0.000332559 0 
0.000545175 -0.000276306 0 -0.000527797 -0.000197598 0 0.000105306 -0.000551033 0 
1.45836e-05 -0.000609147 0 0.00017145 0.000214453 0 0.000515525 0.000341711 0 
0.000636086 0.000290368 0 -0.000558657 0.000404468 0 -4.01232e-05 0.000616718 0 
6.60192e-05 0.000696422 0 -0.000101806 0.0002546 0 0.000271142 -3.88908e-05 0 
0.000179455 -0.00018534 0 -8.79553e-05 -0.000254307 0 -0.000749267 -0.000373451 0 
-0.000655941 -0.000323397 0 0.000709746 0.000466718 0 0.000698426 -0.000473086 0 
-5.25801e-05 -0.00084886 0 -4.93005e-05 0.000848038 0 0.000617396 -0.000413362 0 
0.000702056 -0.000369817 0 0.000131459 -0.000679171 0 2.48171e-05 -0.000715924 0 
-0.000664217 -0.00042729 0 -0.000528828 -8.80444e-05 0 -0.000611101 -0.000136672 0 
-0.000426972 -4.45841e-05 0 0.000800669 0.000378216 0 0.000821144 -0.000415062 0 
7.2799e-05 0.00088254 0 6.81831e-05 -0.00087503 0 0.000104963 -0.000788946 0 
-7.40696e-05 -0.000660054 0 0.000126061 0.000809943 0 0.000764361 0.000295682 0 
0.000166862 0.000630623 0 0.000516462 -0.00046707 0 -0.000563585 -0.000389606 0 
-0.000622598 -1.40238e-05 0 0.000629891 0.000171529 0 2.5614e-06 -0.000299794 0 
8.6901e-05 -0.00024329 0 0.000272045 -0.000136982 0 -0.00075148 0.000138321 0 
0.000209366 -0.000599589 0 0.000324913 -0.000630055 0 0.000614044 0.00041245 0 
0.00049651 -0.000573327 0 0.000394822 -0.000507321 0 -0.000173714 -0.000206698 0 
0.000264897 5.63722e-05 0 0.000247997 0.000152811 0 -4.63327e-05 -0.000920208 0 
9.18688e-05 0.000258626 0 -5.54111e-06 0.000290558 0 -0.000184219 0.000201484 0 
-0.000263559 0.000142267 0 -0.000256427 5.13624e-05 0 -0.000336894 -2.06179e-06 0 
-0.000228499 -4.2388e-05 0 -0.00017589 0.000106626 0 -0.000769947 -0.000133367 0 
0.000767591 -0.000500293 0 -5.05874e-05 0.000737978 0 0.000754456 -3.51771e-06 0 
0.00064691 -6.15298e-05 0 0.000630483 -0.00018134 0 0.000749187 -0.000265543 0 
-0.000760805 -0.000462521 0 0.000638155 6.09315e-05 0 -4.46661e-05 0.000922995 0 
-2.37945e-05 0.000207237 0 0.000776979 0.000500181 0 -0.000605691 0.000527596 0 
-0.000377914 -0.000653727 0 -0.000372325 -0.000526022 0 -0.000275829 -0.000589621 0 
-0.000254285 -0.000710579 0 -0.000379307 0.000656222 0 -0.000379818 0.00052718 0 
-0.000266817 0.000721555 0 -0.000150544 0.000668174 0 0.000381963 0.00065079 0 
0.000493113 0.000590432 0 0.000505439 0.000463708 0 -0.000269094 0.000596608 0 
0.000385815 0.000532045 0 0.000283599 0.0005899 0 -0.000176405 -0.000108505 0 
-0.000278769 -0.000475415 0 0.000185395 2.33014e-06 0 0.000186773 0.000517571 0 
0.000540032 -8.68444e-05 0 -0.000600694 -0.000514877 0 -0.00063703 8.98033e-05 0 
-0.000459677 0.000335729 0 -0.000338836 -0.000100751 0 -0.000457327 0.000432721 0 
-8.72007e-06 -0.000210238 0 0.000156073 0.000129496 0 -7.70692e-05 -0.000555049 0 
0.00036091 -0.000389728 0 0.000531628 0.000120564 0 -0.000285451 0.000435562 0 
0.000192719 -0.000494604 0 0.00041642 0.00039368 0 -0.000135943 0.000554637 0 
-0.000170665 -0.000610079 0 -0.000666304 0.000434981 0 -0.000758736 0.000479231 0 
-0.000470189 -0.000458901 0 0.000203433 -8.59809e-05 0 0.000101846 0.000170114 0 
-0.00035513 -0.00040726 0 0.000100184 -0.000165831 0 2.96286e-05 0.00081537 0 
0.000720946 0.000381836 0 -0.000539809 -0.000292001 0 0.00052211 -0.000182426 0 
-6.41339e-05 -0.000753908 0 0.000638039 -0.000299861 0 -0.000605136 -0.000230182 0 
-3.41638e-05 -0.000145561 0 -0.000104037 0.000172396 0 -0.000808575 -0.00042774 0 
-0.000807207 -0.000465052 0 -0.00080817 0.000429771 0 -0.000806589 0.000469738 0 
-9.50634e-05 -0.000178909 0 0.000247777 0.000445058 0 1.48293e-05 -0.000814201 0 
-4.11555e-05 0.000140955 0 0.000276104 -0.000536845 0 0.000765969 -0.000436638 0 
0.000780871 -0.000362769 0 0.000424176 -0.000642018 0 0.00053413 -0.000368009 0 
-0.000416333 4.17911e-05 0 -0.000133891 -6.23822e-05 0 4.2574e-05 0.000206312 0 
[...]
POINT_DATA 626
VECTORS displacement float
2.85302e-20 -1.38812e-18 -8.17972e-19
-1.40414e-20 -1.63091e-18 -7.99043e-19
1.32707e-18 -9.49011e-19 -7.69856e-19
1.33215e-18 -9.05817e-19 -7.46359e-19
1.47986e-18 -7.54058e-19 -7.78589e-19
1.33591e-18 5.55497e-19 -7.36704e-19
1.37047e-18 7.55166e-19 -7.3967e-19
1.22312e-18 7.42686e-19 -7.66683e-19
9.49844e-20 1.34656e-18 -8.4406e-19
-1.40981e-20 1.25207e-18 -8.06052e-19
-1.44837e-18 7.46148e-19 -7.5601e-19
-1.36358e-18 7.09622e-19 -7.7746e-19
-1.3659e-18 -5.81103e-19 -7.96453e-19
-1.318e-18 -7.58963e-19 -8.14056e-19
0 0 0
1.23885e-19 -1.36024e-18 7.4083e-19
-7.3233e-20 -1.36101e-18 6.52733e-19
1.14613e-18 -7.6637e-19 9.39584e-19
1.13576e-18 -6.1159e-19 6.69499e-19
1.33801e-18 -6.54894e-19 6.72242e-19
1.28059e-18 7.7342e-19 8.26652e-19
1.28566e-18 6.56918e-19 7.67433e-19
1.45525e-18 8.32624e-19 9.16671e-19
1.41889e-19 1.43007e-18 7.69902e-19
-2.27198e-20 1.51933e-18 7.95699e-19
-1.04114e-18 8.07374e-19 6.2737e-19
-1.37509e-18 8.23302e-19 6.81643e-19
-1.52255e-18 -7.58434e-19 7.35404e-19
-1.34178e-18 -7.71234e-19 7.74914e-19
0 0 0
3.00929e-20 -1.34717e-18 -8.07812e-19
1.02288e-18 -9.88219e-19 -7.24105e-19
9.4589e-19 -9.07232e-19 -7.49307e-19
7.92411e-19 -1.06856e-18 -7.81562e-19
6.30939e-19 -1.20965e-18 -7.98089e-19
4.25413e-19 -1.22688e-18 -7.9257e-19
2.80114e-19 -1.51611e-18 -7.86359e-19
1.32711e-18 -7.48915e-19 -7.74745e-19
1.37228e-18 3.96512e-19 -7.31181e-19
1.26478e-18 2.93649e-19 -7.27417e-19
1.30424e-18 7.36022e-20 -7.28438e-19
1.31816e-18 -1.0433e-19 -7.25347e-19
1.32988e-18 -3.12786e-19 -7.4834e-19
1.37677e-18 -5.46441e-19 -7.62974e-19
1.27898e-18 5.74272e-19 -7.43499e-19
2.84622e-19 1.33911e-18 -7.77035e-19
4.69588e-19 1.24266e-18 -7.66781e-19
6.23959e-19 1.14132e-18 -7.40645e-19
8.3419e-19 1.11827e-18 -7.33791e-19
9.71002e-19 9.73215e-19 -7.46273e-19
1.0783e-18 8.0809e-19 -7.71138e-19
2.34286e-20 1.40626e-18 -8.25478e-19
-1.04465e-18 1.01504e-18 -7.4893e-19
-9.32681e-19 1.02694e-18 -7.43197e-19
-7.58163e-19 1.10469e-18 -8.23656e-19
-5.18529e-19 1.09146e-18 -7.83586e-19
-3.38831e-19 1.31738e-18 -7.89094e-19
-1.29612e-19 1.30568e-18 -8.16019e-19
-1.25132e-18 7.64272e-19 -7.60436e-19
-1.17487e-18 -4.47623e-19 -8.29208e-19
-1.39299e-18 -2.93273e-19 -8.05453e-19
-1.35448e-18 -5.23274e-21 -8.03313e-19
-1.27405e-18 1.56298e-19 -7.85727e-19
-1.30119e-18 3.42781e-19 -7.7978e-19
-1.33858e-18 5.13366e-19 -7.6784e-19
-1.20046e-18 -7.00961e-19 -7.94896e-19
-2.19314e-19 -1.35411e-18 -8.1246e-19
-3.66625e-19 -1.22858e-18 -8.12427e-19
-5.33903e-19 -1.13112e-18 -8.20885e-19
-6.99275e-19 -9.95283e-19 -8.38534e-19
-8.16572e-19 -9.60381e-19 -8.20557e-19
-1.13688e-18 -8.68872e-19 -8.27423e-19
0 0 0
0 0 0
0 0 0
0 0 0
0 0 0
0 0 0
1.6541e-20 -1.41542e-18 6.82616e-19
1.07657e-18 -8.6447e-19 6.61253e-19
9.08754e-19 -9.15303e-19 7.18258e-19
6.93515e-19 -1.10678e-18 7.63934e-19
5.34294e-19 -1.18846e-18 6.37336e-19
3.55916e-19 -1.26371e-18 7.86268e-19
1.80241e-19 -1.24358e-18 7.45901e-19
1.20584e-18 -6.71456e-19 6.65989e-19
1.3333e-18 4.92859e-19 8.49011e-19
1.35182e-18 2.95221e-19 6.2e-19
1.39582e-18 6.95089e-20 6.71762e-19
1.37311e-18 -9.49843e-20 7.13344e-19
1.31915e-18 -2.61291e-19 7.42086e-19
1.32051e-18 -4.17173e-19 7.26735e-19
1.31009e-18 7.40131e-19 8.39646e-19
3.16795e-19 1.54381e-18 5.96329e-19
3.6499e-19 1.34831e-18 6.37731e-19
6.12729e-19 1.10712e-18 7.56033e-19
8.0911e-19 1.05506e-18 8.18722e-19
9.34512e-19 9.55875e-19 8.37834e-19
1.09531e-18 9.18446e-19 9.34481e-19
6.90654e-20 1.44232e-18 7.70538e-19
-1.01109e-18 9.16079e-19 7.61917e-19
-8.06607e-19 9.29227e-19 7.67032e-19
-6.65529e-19 1.09307e-18 9.02225e-19
-5.95121e-19 1.19165e-18 8.30363e-19
-3.87057e-19 1.34035e-18 8.01178e-19
-1.7633e-19 1.41396e-18 8.42855e-19
-1.21501e-18 7.33674e-19 7.83939e-19
-1.57548e-18 -4.2466e-19 5.956e-19
-1.38957e-18 -2.17635e-19 7.52082e-19
-1.36263e-18 -6.47826e-20 7.68206e-19
-1.46086e-18 1.07175e-19 6.39373e-19
-1.46185e-18 3.81524e-19 7.94744e-19
-1.3541e-18 5.66704e-19 6.21422e-19
-1.48517e-18 -6.83967e-19 6.42108e-19
-2.50758e-19 -1.3851e-18 7.35891e-19
-4.22138e-19 -1.24799e-18 7.36728e-19
-5.92451e-19 -1.18248e-18 6.69342e-19
-8.02609e-19 -1.08744e-18 7.36547e-19
-8.97681e-19 -9.99107e-19 7.83813e-19
-9.96319e-19 -8.94912e-19 7.31354e-19
0 0 0
0 0 0
0 0 0
0 0 0
0 0 0
0 0 0
-1.45709e-19 -7.35027e-20 -3.46684e-19
-1.4561e-19 7.50736e-20 -3.05339e-19
-2.92428e-20 -1.50684e-19 -3.34804e-19
-2.69544e-20 1.55309e-19 -3.2479e-19
1.64351e-19 3.60492e-21 -3.26304e-19
1.13227e-19 1.26084e-19 -2.90909e-19
1.22953e-19 -1.18551e-19 -2.94365e-19
1.23223e-18 3.55741e-19 -7.32129e-19
1.14623e-18 -3.98493e-19 -7.64146e-19
3.14971e-19 -1.23763e-18 -8.00478e-19
3.01958e-19 1.14939e-18 -7.88554e-19
-8.95103e-19 -8.50373e-19 -8.27874e-19
-8.35636e-19 8.31601e-19 -7.5943e-19
-1.22642e-18 -1.59238e-19 -8.1981e-19
8.23287e-19 -8.48934e-19 -7.59553e-19
7.66649e-19 8.28045e-19 -7.49714e-19
-3.61839e-19 -1.08017e-18 -8.08324e-19
-3.03949e-19 1.13865e-18 -7.6618e-19
-1.07474e-18 2.37096e-19 -7.85342e-19
1.07911e-18 -3.64006e-20 -7.46367e-19
1.26146e-18 -5.93384e-19 -7.67436e-19
9.80583e-19 -4.63397e-19 -7.44475e-19
9.28626e-19 -2.6968e-19 -7.54267e-19
9.03243e-19 -4.12697e-19 -7.70084e-19
7.749e-19 -2.12163e-19 -7.5898e-19
6.35139e-19 -3.06945e-19 -7.34817e-19
5.88166e-19 -2.01378e-19 -7.16695e-19
5.24578e-19 -2.75957e-19 -6.9866e-19
5.34146e-19 -4.11469e-19 -7.35832e-19
3.69208e-19 -3.46483e-19 -6.90132e-19
4.18092e-19 -5.50018e-19 -7.28136e-19
2.60446e-19 -4.61632e-19 -6.49443e-19
3.33042e-19 -5.92293e-19 -7.3734e-19
1.70574e-19 -5.15712e-19 -6.74377e-19
1.87023e-19 -6.30422e-19 -7.27723e-19
1.61569e-20 -6.73664e-19 -6.99371e-19
7.23209e-20 -7.71794e-19 -7.48264e-19
-1.08492e-19 -7.46427e-19 -7.48929e-19
3.7297e-19 -7.25583e-19 -7.40766e-19
-1.23548e-19 -5.42528e-19 -7.25429e-19
-2.60423e-19 -6.30197e-19 -7.47294e-19
-2.42394e-19 -4.93408e-19 -6.95638e-19
-3.73618e-19 -5.7498e-19 -7.18836e-19
-4.12307e-19 -4.16211e-19 -6.71845e-19
-5.20891e-19 -5.36054e-19 -7.50044e-19
-5.2111e-19 -3.15608e-19 -7.15175e-19
-6.56505e-19 -4.35206e-19 -7.59172e-19
-6.9214e-19 -2.24582e-19 -7.40677e-19
-5.17618e-19 -6.58558e-19 -7.92402e-19
-4.94791e-19 -1.52678e-19 -7.01154e-19
-6.45397e-19 -8.01074e-20 -7.25427e-19
-4.6889e-19 7.25679e-21 -7.11576e-19
-6.79853e-19 8.55467e-20 -7.45599e-19
-4.91415e-19 1.47628e-19 -7.18378e-19
-7.16405e-19 2.46951e-19 -7.30509e-19
-5.1808e-19 2.92441e-19 -7.10106e-19
-6.00341e-19 4.132e-19 -7.50899e-19
-5.34883e-19 4.67956e-19 -7.17667e-19
-3.92535e-19 3.54216e-19 -6.70514e-19
-3.45819e-19 5.3408e-19 -7.13531e-19
-2.71129e-19 4.94215e-19 -6.79213e-19
-2.40687e-19 6.17789e-19 -7.15741e-19
-1.30415e-19 5.48562e-19 -6.80951e-19
-9.82088e-20 7.12593e-19 -7.16777e-19
3.70281e-20 5.6239e-19 -7.00768e-19
1.20564e-20 7.37552e-19 -7.01838e-19
1.57106e-19 6.03107e-19 -6.98627e-19
1.37004e-19 5.27396e-19 -6.81082e-19
2.88797e-19 5.74099e-19 -7.05327e-19
2.55396e-19 4.47947e-19 -6.89345e-19
4.18962e-19 5.58593e-19 -7.09493e-19
4.19514e-19 3.84052e-19 -6.83989e-19
5.24388e-19 4.41533e-19 -6.79626e-19
5.43827e-19 2.70321e-19 -7.04135e-19
6.88074e-19 3.29353e-19 -7.29183e-19
2.93982e-19 7.52276e-19 -7.52859e-19
6.56144e-19 2.09168e-19 -7.03893e-19
-3.9505e-19 6.65304e-19 -7.2752e-19
4.84418e-19 -9.77379e-20 -6.6564e-19
8.09233e-19 -5.12552e-20 -7.4068e-19
-4.1127e-20 -8.70795e-19 -7.72488e-19
-7.26235e-19 -3.63564e-21 -7.93278e-19
-8.66241e-19 -3.44495e-19 -7.60631e-19
5.82487e-19 -5.6528e-19 -7.59987e-19
3.76674e-19 2.23495e-19 -6.35614e-19
6.73503e-19 5.60237e-19 -7.30624e-19
-6.57795e-19 5.30737e-19 -7.41126e-19
-7.21347e-19 5.01899e-19 -7.82564e-19
7.69151e-19 3.3039e-19 -7.10473e-19
-1.6119e-19 8.06468e-19 -7.43096e-19
2.58404e-20 8.69724e-19 -7.38581e-19
-2.41273e-19 -3.17866e-19 -6.39978e-19
-7.89471e-19 -4.75338e-19 -7.80583e-19
-1.02605e-18 -4.41909e-19 -8.01811e-19
8.88952e-19 -6.41141e-19 -7.39818e-19
1.45189e-19 -9.5145e-19 -7.66633e-19
-2.67517e-20 -1.10031e-18 -7.91241e-19
1.20867e-19 -3.79612e-19 -5.96792e-19
-3.49943e-19 7.1166e-20 -6.3465e-19
-2.5117e-19 2.52102e-19 -5.926e-19
1.23638e-19 4.00444e-19 -6.0127e-19
1.18869e-18 5.3859e-19 -7.25967e-19
1.00543e-18 4.81302e-19 -7.33092e-19
-1.13775e-18 -7.18947e-19 -8.02934e-19
-1.10558e-18 7.49942e-19 -7.41158e-19
1.21711e-19 1.24429e-18 -8.05837e-19
1.20808e-19 -1.26191e-18 -8.06368e-19
-9.71009e-19 6.99229e-19 -7.68417e-19
-1.08369e-18 6.40687e-19 -7.74995e-19
-1.93258e-19 1.11529e-18 -7.74284e-19
-1.71922e-21 1.08453e-18 -7.35268e-19
1.10649e-18 6.69961e-19 -7.43292e-19
8.15674e-19 1.31115e-19 -7.26126e-19
9.78798e-19 2.12146e-19 -7.38245e-19
6.71184e-19 7.39914e-20 -6.9218e-19
-1.23219e-18 -5.57084e-19 -8.12586e-19
-1.10556e-18 6.33138e-19 -8.08874e-19
-6.89234e-20 -1.30834e-18 -8.12141e-19
-3.70333e-20 1.29141e-18 -8.00344e-19
-1.00139e-19 1.20599e-18 -7.6968e-19
1.4035e-19 9.52084e-19 -7.41476e-19
-1.09174e-19 -1.30202e-18 -8.00727e-19
-1.14048e-18 -4.64865e-19 -7.86054e-19
-2.10461e-19 -1.00164e-18 -8.24254e-19
-7.18534e-19 7.67605e-19 -7.74921e-19
8.23226e-19 5.54168e-19 -7.30798e-19
8.81712e-19 1.46619e-20 -7.34632e-19
-9.81046e-19 -2.31642e-19 -8.18112e-19
1.26788e-20 4.56285e-19 -6.27673e-19
-1.14109e-19 3.91327e-19 -5.98363e-19
-3.91632e-19 2.24411e-19 -6.45232e-19
1.20613e-18 -2.01427e-19 -7.49652e-19
-2.97058e-19 9.48375e-19 -7.48848e-19
-4.66637e-19 9.58987e-19 -7.64174e-19
-9.46644e-19 -6.52967e-19 -8.02036e-19
-7.31385e-19 9.23285e-19 -7.75964e-19
-5.66695e-19 7.53692e-19 -7.48535e-19
2.72628e-19 3.19451e-19 -6.13497e-19
-3.68559e-19 -7.44956e-20 -6.37095e-19
-3.20907e-19 -2.3763e-19 -6.57655e-19
8.16526e-20 1.3028e-18 -8.26446e-19
-1.47268e-19 -3.87736e-19 -6.19996e-19
3.67746e-22 -4.59397e-19 -6.49168e-19
2.83325e-19 -3.19431e-19 -6.08832e-19
3.49294e-19 -2.28644e-19 -6.1751e-19
3.63955e-19 -8.51544e-20 -5.74986e-19
5.01898e-19 2.09139e-20 -6.56705e-19
3.38298e-19 5.74163e-20 -5.30327e-19
2.3943e-19 -1.58706e-19 -4.57901e-19
1.15113e-18 2.16565e-19 -7.17551e-19
-1.23072e-18 7.87869e-19 -7.66344e-19
1.75947e-19 -1.18643e-18 -7.78349e-19
-1.00793e-18 8.51552e-21 -7.83116e-19
-8.03971e-19 1.16709e-19 -7.81247e-19
-9.22562e-19 3.00646e-19 -7.74006e-19
-1.14333e-18 4.61809e-19 -7.80221e-19
1.12575e-18 6.66934e-19 -7.73247e-19
-9.45309e-19 -5.82987e-20 -7.9148e-19
1.18809e-19 -1.48689e-18 -8.17823e-19
3.941e-20 -3.12661e-19 -5.20934e-19
-1.10452e-18 -6.54828e-19 -8.02689e-19
9.15503e-19 -7.51111e-19 -7.55338e-19
6.45859e-19 9.88911e-19 -7.39783e-19
5.82483e-19 7.57562e-19 -7.3169e-19
4.41618e-19 9.69763e-19 -7.3001e-19
3.85296e-19 1.088e-18 -7.51917e-19
6.55158e-19 -1.05652e-18 -7.87542e-19
6.32574e-19 -8.47e-19 -7.7701e-19
4.12815e-19 -1.0469e-18 -7.90939e-19
3.10824e-19 -9.6856e-19 -7.76958e-19
-4.94873e-19 -1.0064e-18 -8.12321e-19
-7.71005e-19 -8.61562e-19 -8.08876e-19
-7.85712e-19 -6.92397e-19 -8.14204e-19
4.76733e-19 -9.27042e-19 -7.96141e-19
-6.42316e-19 -7.88567e-19 -7.86193e-19
-4.57773e-19 -8.58925e-19 -8.13348e-19
2.52226e-19 1.43315e-19 -4.96567e-19
4.58513e-19 7.22483e-19 -7.22667e-19
-2.2266e-19 -6.39393e-21 -4.95187e-19
-3.01589e-19 -8.65583e-19 -7.94538e-19
-7.70956e-19 1.46654e-19 -7.54631e-19
9.12789e-19 7.7614e-19 -7.34251e-19
1.03419e-18 -1.15184e-19 -7.43783e-19
7.63091e-19 -5.27225e-19 -7.63591e-19
5.30751e-19 1.46901e-19 -6.71007e-19
6.68688e-19 -6.55726e-19 -7.57342e-19
1.949e-20 3.28636e-19 -5.16034e-19
-1.93909e-19 -2.03328e-19 -4.94665e-19
1.75261e-19 7.86929e-19 -7.21707e-19
-4.88064e-19 5.99552e-19 -7.26932e-19
-8.2924e-19 -1.6854e-19 -7.87993e-19
4.87767e-19 -6.54512e-19 -7.70051e-19
-2.65849e-19 8.31081e-19 -7.4346e-19
-6.64094e-19 -6.09853e-19 -7.78546e-19
2.81724e-19 -8.15264e-19 -7.76905e-19
2.78982e-19 8.90621e-19 -7.53586e-19
1.12861e-18 -7.06884e-19 -7.51337e-19
1.10196e-18 -7.18285e-19 -7.69385e-19
8.12948e-19 7.24324e-19 -7.21217e-19
-2.73211e-19 1.30795e-19 -5.22997e-19
-1.24276e-19 -2.27557e-19 -4.86754e-19
5.68537e-19 6.27885e-19 -7.13739e-19
-1.19982e-19 2.13647e-19 -4.69021e-19
2.06651e-20 -1.18432e-18 -7.98532e-19
-1.07828e-18 -5.56761e-19 -8.17917e-19
9.16434e-19 4.34873e-19 -7.30878e-19
-7.06759e-19 3.2525e-19 -7.55019e-19
1.29623e-19 1.11171e-18 -7.73567e-19
-8.79873e-19 4.86124e-19 -7.75268e-19
9.15301e-19 3.66561e-19 -7.4491e-19
4.32856e-20 1.65494e-19 -3.46309e-19
1.48187e-19 -2.18743e-19 -5.01798e-19
1.2008e-18 5.41372e-19 -7.54514e-19
1.38115e-18 6.83065e-19 -7.55855e-19
1.2244e-18 -6.39999e-19 -7.9407e-19
1.39042e-18 -7.92057e-19 -7.73915e-19
1.48294e-19 2.71061e-19 -4.83277e-19
-3.57702e-19 -6.91149e-19 -7.89542e-19
3.64356e-20 1.15712e-18 -7.93176e-19
4.85091e-20 -1.76508e-19 -3.43301e-19
-4.22923e-19 8.03024e-19 -7.48976e-19
-1.21608e-18 6.69346e-19 -7.75185e-19
-1.11366e-18 5.77832e-19 -7.88181e-19
-6.12325e-19 1.10376e-18 -7.92393e-19
-7.73433e-19 6.34225e-19 -7.74439e-19
6.11865e-19 -4.69794e-20 -7.20703e-19
1.57798e-19 6.39221e-20 -3.44452e-19
-7.07364e-20 -2.89642e-19 -5.30443e-19
-1.76368e-19 1.66606e-19 -4.7042e-19
-1.08457e-18 -3.24202e-19 -8.01381e-19
-1.76186e-19 -1.05547e-18 -8.10786e-19
5.90123e-20 1.35934e-18 -7.96997e-19
1.50243e-19 -5.96327e-20 -3.26205e-19
2.42419e-19 -4.39795e-20 -4.55086e-19
-2.56999e-19 -1.26898e-19 -5.23036e-19
2.22365e-20 -1.33559e-18 -7.97027e-19
-1.29896e-18 -6.8784e-19 -7.94077e-19
1.08555e-18 -7.78865e-19 -7.40406e-19
-1.09257e-19 -1.20989e-19 -3.25012e-19
1.11341e-18 7.77161e-19 -7.62749e-19
1.05696e-18 8.0476e-20 -7.41426e-19
1.00651e-18 2.73069e-19 -7.26939e-19
-6.47554e-20 2.63857e-19 -4.86025e-19
2.6405e-19 9.54013e-19 -7.6938e-19
5.14181e-19 -7.33839e-19 -7.70609e-19
-9.55276e-20 1.11154e-19 -3.09096e-19
-6.03197e-19 6.83835e-19 -7.59033e-19
-2.12267e-19 1.20889e-18 -7.9248e-19
7.16609e-19 -7.19398e-19 -7.52223e-19
-4.43179e-19 -7.25931e-19 -7.93518e-19
-1.40879e-19 -7.33896e-20 4.17997e-19
-1.47782e-19 4.50465e-20 1.99182e-19
-5.50322e-20 -1.61733e-19 2.93215e-19
-2.76076e-20 1.32881e-19 2.28732e-19
1.64337e-19 -1.97933e-20 3.58135e-19
1.01158e-19 1.1283e-19 2.57428e-19
9.3465e-20 -1.25712e-19 2.64682e-19
1.16697e-18 4.03902e-19 8.50253e-19
1.08303e-18 -3.77362e-19 7.14488e-19
2.08786e-19 -1.15595e-18 7.22441e-19
2.68374e-19 1.26513e-18 6.94588e-19
-9.37595e-19 -8.44274e-19 7.95499e-19
-8.86862e-19 9.13935e-19 6.26778e-19
-1.24083e-18 -1.16043e-19 8.42727e-19
7.13966e-19 -9.07711e-19 6.80971e-19
7.36067e-19 8.67179e-19 8.29581e-19
-4.20946e-19 -1.04607e-18 6.86903e-19
-3.40027e-19 1.10917e-18 7.35548e-19
-1.30165e-18 2.44647e-19 7.61601e-19
1.12183e-18 3.17713e-20 6.80857e-19
1.12521e-18 -5.79796e-19 8.40694e-19
9.51234e-19 -4.80295e-19 7.48117e-19
1.03161e-18 -3.39532e-19 7.27053e-19
9.19731e-19 -4.03168e-19 6.56146e-19
7.80803e-19 -2.52347e-19 6.65404e-19
7.19093e-19 -3.22934e-19 6.14033e-19
6.3276e-19 -2.01044e-19 5.57334e-19
5.48764e-19 -2.91529e-19 5.65516e-19
6.15372e-19 -4.42784e-19 6.28758e-19
3.81106e-19 -3.79864e-19 6.56105e-19
4.0345e-19 -4.94705e-19 7.81612e-19
2.74775e-19 -4.58226e-19 6.5325e-19
2.77376e-19 -6.02846e-19 7.84684e-19
1.62177e-19 -4.72399e-19 6.83542e-19
1.64395e-19 -6.73594e-19 6.94948e-19
3.14056e-20 -6.45974e-19 6.03071e-19
6.61468e-20 -7.4886e-19 6.02286e-19
-1.05366e-19 -7.25554e-19 7.45151e-19
3.11951e-19 -7.53779e-19 7.05623e-19
-1.13724e-19 -5.47413e-19 7.63922e-19
-2.90565e-19 -6.943e-19 6.52394e-19
-2.43641e-19 -4.7545e-19 7.2692e-19
-4.04433e-19 -5.46611e-19 6.66239e-19
-4.08213e-19 -4.02902e-19 4.8085e-19
-5.13124e-19 -4.70683e-19 5.99405e-19
-5.02043e-19 -3.56719e-19 7.42553e-19
-6.5946e-19 -3.91668e-19 6.51693e-19
-6.6726e-19 -2.77658e-19 6.6832e-19
-5.144e-19 -6.38926e-19 6.91271e-19
-5.51037e-19 -2.18134e-19 5.85441e-19
-7.13847e-19 -1.26203e-19 6.64067e-19
-5.45506e-19 -5.96638e-20 5.70127e-19
-7.27697e-19 5.28238e-20 7.25271e-19
-5.90176e-19 1.10859e-19 5.85954e-19
-6.95749e-19 2.24074e-19 7.63937e-19
-5.54236e-19 2.42853e-19 5.57909e-19
-7.23325e-19 3.70396e-19 8.61979e-19
-6.16677e-19 4.49883e-19 7.07258e-19
-3.82009e-19 3.69573e-19 6.91073e-19
-4.08566e-19 5.78622e-19 7.60868e-19
-2.98845e-19 4.56496e-19 6.82244e-19
-2.68216e-19 5.96494e-19 7.63797e-19
-1.62024e-19 4.86859e-19 5.74004e-19
-1.38485e-19 7.53167e-19 7.35794e-19
-5.83293e-21 5.93731e-19 7.869e-19
-1.81726e-21 7.02341e-19 6.21466e-19
1.53068e-19 6.8286e-19 7.96373e-19
1.57123e-19 4.9481e-19 7.95345e-19
2.9148e-19 5.96266e-19 6.53088e-19
2.80929e-19 4.38373e-19 5.99392e-19
3.81708e-19 4.67659e-19 8.01873e-19
4.02985e-19 3.86436e-19 7.07333e-19
5.59144e-19 4.032e-19 7.66557e-19
5.5813e-19 2.87905e-19 8.41715e-19
6.90441e-19 3.42636e-19 7.53965e-19
2.68326e-19 7.18495e-19 7.941e-19
7.35727e-19 1.94861e-19 6.14768e-19
-4.04857e-19 7.16057e-19 8.26526e-19
5.13857e-19 -1.72192e-19 7.11562e-19
8.26824e-19 -6.88841e-20 7.4867e-19
-8.73792e-20 -8.6859e-19 7.88287e-19
-8.11053e-19 -2.94295e-20 7.85504e-19
-8.23077e-19 -3.4186e-19 7.73286e-19
5.03198e-19 -6.02668e-19 7.75778e-19
4.11393e-19 1.88067e-19 5.86755e-19
6.66823e-19 5.48322e-19 7.47941e-19
-6.94638e-19 6.07489e-19 8.12045e-19
-8.35714e-19 4.67595e-19 8.03585e-19
8.53909e-19 2.46849e-19 6.93811e-19
-1.27768e-19 8.32773e-19 7.95932e-19
6.91367e-21 9.1317e-19 6.44986e-19
-2.71318e-19 -3.15551e-19 5.2437e-19
-8.1188e-19 -5.21633e-19 7.73794e-19
-9.46312e-19 -4.09958e-19 7.3701e-19
8.26132e-19 -6.40924e-19 6.04238e-19
6.19872e-20 -9.69291e-19 6.48276e-19
-1.32133e-19 -1.11449e-18 6.50875e-19
1.2391e-19 -3.55665e-19 6.49845e-19
-4.16285e-19 4.41241e-20 6.2479e-19
-2.61739e-19 2.8009e-19 6.76637e-19
1.80274e-19 3.40059e-19 6.37452e-19
1.06503e-18 5.12411e-19 8.09711e-19
8.10639e-19 4.65564e-19 7.44634e-19
-1.03885e-18 -7.40201e-19 5.73648e-19
-9.08226e-19 7.23655e-19 6.77019e-19
1.36917e-19 1.39151e-18 6.63288e-19
3.06768e-20 -1.28395e-18 6.45989e-19
-9.13634e-19 7.16954e-19 6.50616e-19
-1.09129e-18 5.89981e-19 8.50095e-19
-1.51223e-19 1.04082e-18 7.51995e-19
-4.14809e-21 9.94834e-19 7.84079e-19
1.04745e-18 7.0214e-19 8.77691e-19
9.10752e-19 1.30295e-19 7.85681e-19
9.83699e-19 1.72284e-19 7.87859e-19
6.41861e-19 5.27813e-20 6.23228e-19
-1.37129e-18 -5.11893e-19 6.19168e-19
-1.23861e-18 6.62456e-19 7.32124e-19
-1.10062e-19 -1.38404e-18 5.98783e-19
-4.17412e-20 1.46789e-18 7.55007e-19
-1.17122e-19 1.26767e-18 7.06117e-19
1.66317e-19 9.5547e-19 5.6854e-19
-2.13108e-19 -1.26457e-18 6.7229e-19
-1.31082e-18 -3.95246e-19 6.31576e-19
-2.48203e-19 -9.48952e-19 7.86803e-19
-6.69237e-19 7.47726e-19 6.89331e-19
8.10818e-19 5.81492e-19 8.31923e-19
9.29795e-19 -8.12527e-21 7.7124e-19
-9.7151e-19 -2.64699e-19 8.15567e-19
3.6871e-20 4.4667e-19 6.93056e-19
-1.14672e-19 3.36232e-19 7.12047e-19
-4.06521e-19 1.89534e-19 6.97319e-19
1.1699e-18 -2.29945e-19 8.19518e-19
-2.55864e-19 9.40488e-19 7.58871e-19
-3.94087e-19 1.0313e-18 8.25751e-19
-1.04471e-18 -6.3364e-19 7.86364e-19
-7.28939e-19 9.23685e-19 6.30517e-19
-5.45598e-19 8.76044e-19 6.02108e-19
2.46506e-19 3.05454e-19 6.44815e-19
-4.24044e-19 -8.35026e-20 5.50085e-19
-3.88532e-19 -2.35659e-19 6.37272e-19
1.82871e-19 1.50757e-18 8.6493e-19
-1.43452e-19 -3.69851e-19 6.65892e-19
-1.33496e-20 -4.31265e-19 6.18708e-19
2.41907e-19 -2.8983e-19 5.54337e-19
3.91899e-19 -2.2846e-19 5.70877e-19
3.54323e-19 -1.14821e-19 6.10221e-19
5.33842e-19 -3.50359e-20 6.46238e-19
3.16889e-19 3.15779e-20 4.81213e-19
2.36298e-19 -1.48722e-19 3.10637e-19
1.18088e-18 2.05902e-19 7.89429e-19
-1.17289e-18 7.55131e-19 6.56822e-19
4.41045e-20 -1.07622e-18 7.35289e-19
-1.30254e-18 9.16101e-20 6.38851e-19
-9.97319e-19 1.19467e-19 7.87644e-19
-1.00935e-18 3.2909e-19 7.72714e-19
-1.19402e-18 4.12776e-19 8.09107e-19
1.16581e-18 6.83829e-19 9.05367e-19