# vtk DataFile Version 3.0
vtk output at time 60
ASCII
DATASET UNSTRUCTURED_GRID
POINTS 626 float
-3.68058e-05 0.000978749 0 3.68058e-05 0.000978749 0 -0.000829194 0.00052125 0 
-0.0008235 0.0005 0 -0.000866 0.0004575 0 -0.000866 -0.0004575 0 
-0.0008235 -0.0005 0 -0.000829194 -0.00052125 0 -3.68058e-05 -0.000978749 0 
3.68058e-05 -0.000978749 0 0.000829194 -0.00052125 0 0.000866 -0.0004575 0 
0.000866 0.0004575 0 0.000829194 0.00052125 0 8.5e-05 0 0 
-3.68058e-05 0.000978749 -0.001 3.68058e-05 0.000978749 -0.001 -0.000829194 0.00052125 -0.001 
-0.0008235 0.0005 -0.001 -0.000866 0.0004575 -0.001 -0.000866 -0.0004575 -0.001 
-0.0008235 -0.0005 -0.001 -0.000829194 -0.00052125 -0.001 -3.68058e-05 -0.000978749 -0.001 
3.68058e-05 -0.000978749 -0.001 0.000829194 -0.00052125 -0.001 0.000866 -0.0004575 -0.001 
0.000866 0.0004575 -0.001 0.000829194 0.00052125 -0.001 8.5e-05 0 -0.001 
8.46223e-17 0.0009575 0 -0.000715996 0.000586607 0 -0.000602797 0.000651965 0 
-0.000489599 0.000717321 0 -0.000376401 0.000782678 0 -0.000263202 0.000848036 0 
-0.000150004 0.000913393 0 -0.000835948 0.000469948 0 -0.000866 -0.000326786 0 
-0.000866 -0.000196071 0 -0.000866 -6.53571e-05 0 -0.000866 6.53571e-05 0 
-0.000866 0.000196071 0 -0.000866 0.000326786 0 -0.000835948 -0.000469948 0 
-0.000150004 -0.000913393 0 -0.000263202 -0.000848036 0 -0.000376401 -0.000782678 0 
-0.000489599 -0.000717321 0 -0.000602797 -0.000651965 0 -0.000715996 -0.000586607 0 
8.47648e-17 -0.0009575 0 0.000715996 -0.000586607 0 0.000602797 -0.000651965 0 
0.000489599 -0.000717321 0 0.000376401 -0.000782678 0 0.000263202 -0.000848036 0 
0.000150004 -0.000913393 0 0.000829194 -0.00047875 0 0.000866 0.000326786 0 
0.000866 0.000196071 0 0.000866 6.53571e-05 0 0.000866 -6.53571e-05 0 
0.000866 -0.000196071 0 0.000866 -0.000326786 0 0.000829194 0.00047875 0 
0.000150004 0.000913393 0 0.000263202 0.000848036 0 0.000376401 0.000782678 0 
0.000489599 0.000717321 0 0.000602797 0.000651965 0 0.000715996 0.000586607 0 
5.29966e-05 6.64557e-05 0 -1.89143e-05 8.28689e-05 0 -7.65824e-05 3.68801e-05 0 
-7.65824e-05 -3.68801e-05 0 -1.89143e-05 -8.28689e-05 0 5.29966e-05 -6.64557e-05 0 
8.46223e-17 0.0009575 -0.001 -0.000715996 0.000586607 -0.001 -0.000602797 0.000651965 -0.001 
-0.000489599 0.000717321 -0.001 -0.000376401 0.000782678 -0.001 -0.000263202 0.000848036 -0.001 
-0.000150004 0.000913393 -0.001 -0.000835948 0.000469948 -0.001 -0.000866 -0.000326786 -0.001 
-0.000866 -0.000196071 -0.001 -0.000866 -6.53571e-05 -0.001 -0.000866 6.53571e-05 -0.001 
-0.000866 0.000196071 -0.001 -0.000866 0.000326786 -0.001 -0.000835948 -0.000469948 -0.001 
-0.000150004 -0.000913393 -0.001 -0.000263202 -0.000848036 -0.001 -0.000376401 -0.000782678 -0.001 
-0.000489599 -0.000717321 -0.001 -0.000602797 -0.000651965 -0.001 -0.000715996 -0.000586607 -0.001 
8.47648e-17 -0.0009575 -0.001 0.000715996 -0.000586607 -0.001 0.000602797 -0.000651965 -0.001 
0.000489599 -0.000717321 -0.001 0.000376401 -0.000782678 -0.001 0.000263202 -0.000848036 -0.001 
0.000150004 -0.000913393 -0.001 0.000829194 -0.00047875 -0.001 0.000866 0.000326786 -0.001 
0.000866 0.000196071 -0.001 0.000866 6.53571e-05 -0.001 0.000866 -6.53571e-05 -0.001 
0.000866 -0.000196071 -0.001 0.000866 -0.000326786 -0.001 0.000829194 0.00047875 -0.001 
0.000150004 0.000913393 -0.001 0.000263202 0.000848036 -0.001 0.000376401 0.000782678 -0.001 
0.000489599 0.000717321 -0.001 0.000602797 0.000651965 -0.001 0.000715996 0.000586607 -0.001 
5.29966e-05 6.64557e-05 -0.001 -1.89143e-05 8.28689e-05 -0.001 -7.65824e-05 3.68801e-05 -0.001 
-7.65824e-05 -3.68801e-05 -0.001 -1.89143e-05 -8.28689e-05 -0.001 5.29966e-05 -6.64557e-05 -0.001 
0.000131234 6.38474e-05 0 0.00012964 -6.2443e-05 0 3.13827e-05 0.0001394 0 
3.12554e-05 -0.000136939 0 -0.000140461 8.25467e-19 0 -8.90565e-05 -0.000102707 0 
-9.04142e-05 0.000102872 0 -0.000765769 -0.00025965 0 -0.000756873 0.000262774 0 
-0.00015609 0.000787505 0 -0.000155807 -0.00079355 0 0.000605069 0.000528035 0 
0.000608694 -0.00052497 0 0.000744069 0.000116929 0 -0.000494418 0.000596218 0 
-0.000483866 -0.000584648 0 0.000269496 0.000702219 0 0.000263201 -0.000717324 0 
0.000754429 -0.000127825 0 -0.000748858 5.84659e-07 0 -0.000747838 0.000373886 0 
-0.0006542 0.000324842 0 -0.000645137 0.000210123 0 -0.000550884 0.000274171 0 
-0.000538857 0.000163195 0 -0.00045062 0.000224461 0 -0.000438393 0.000123907 0 
-0.000354088 0.000181668 0 -0.000363908 0.000282171 0 -0.000270361 0.000239477 0 
-0.000279138 0.000337653 0 -0.000188888 0.000294791 0 -0.000196448 0.000393271 0 
-0.000104767 0.000348259 0 -0.000113332 0.000449012 0 -2.01066e-05 0.000403223 0 
-2.89189e-05 0.000507105 0 6.9524e-05 0.000461596 0 -0.000213644 0.000490203 0 
7.33757e-05 0.000357726 0 0.000163331 0.00041299 0 0.000163359 0.000313022 0 
0.000248077 0.000366368 0 0.000250914 0.000265758 0 0.000335709 0.000322266 0 
0.000340555 0.000218148 0 0.000427299 0.000276717 0 0.000431508 0.000173093 0 
0.000328731 0.000425633 0 0.00034586 0.000114823 0 0.000435362 7.05241e-05 0 
0.000350892 1.5455e-05 0 0.000441547 -3.11896e-05 0 0.000353547 -8.47783e-05 0 
0.000445767 -0.000132964 0 0.000356135 -0.000186358 0 0.000449094 -0.000234674 0 
0.000359978 -0.000287876 0 0.00026856 -0.000240545 0 0.000271895 -0.000341045 0 
0.000181792 -0.00029305 0 0.00018533 -0.000392851 0 9.75701e-05 -0.00034483 0 
9.98764e-05 -0.000444884 0 8.75116e-06 -0.000396343 0 1.20916e-05 -0.000500496 0 
-7.83929e-05 -0.000449843 0 -8.1471e-05 -0.000347249 0 -0.000171566 -0.000403733 0 
-0.000169889 -0.000298891 0 -0.000259867 -0.000354132 0 -0.000257696 -0.000249137 0 
-0.00034313 -0.000299896 0 -0.000344514 -0.000199127 0 -0.000434309 -0.000250039 0 
-0.000169832 -0.000505815 0 -0.000435227 -0.000146227 0 0.000280331 -0.000442424 0 
-0.000340889 8.76793e-05 0 -0.000515252 4.06198e-05 0 6.50491e-05 0.000568253 0 
0.00053278 1.74743e-05 0 0.000522071 0.000229831 0 -0.00037162 0.000391659 0 
-0.000255272 -0.000150439 0 -0.000442893 -0.000350705 0 0.000450067 -0.000332559 0 
0.000545175 -0.000276306 0 -0.000527797 -0.000197598 0 0.000105306 -0.000551033 0 
1.45836e-05 -0.000609147 0 0.00017145 0.000214453 0 0.000515525 0.000341711 0 
0.000636086 0.000290368 0 -0.000558657 0.000404468 0 -4.01232e-05 0.000616718 0 
6.60192e-05 0.000696422 0 -0.000101806 0.0002546 0 0.000271142 -3.88908e-05 0 
0.000179455 -0.00018534 0 -8.79553e-05 -0.000254307 0 -0.000749267 -0.000373451 0 
-0.000655941 -0.000323397 0 0.000709746 0.000466718 0 0.000698426 -0.000473086 0 
-5.25801e-05 -0.00084886 0 -4.93005e-05 0.000848038 0 0.000617396 -0.000413362 0 
0.000702056 -0.000369817 0 0.000131459 -0.000679171 0 2.48171e-05 -0.000715924 0 
-0.000664217 -0.00042729 0 -0.000528828 -8.80444e-05 0 -0.000611101 -0.000136672 0 
-0.000426972 -4.45841e-05 0 0.000800669 0.000378216 0 0.000821144 -0.000415062 0 
7.2799e-05 0.00088254 0 6.81831e-05 -0.00087503 0 0.000104963 -0.000788946 0 
-7.40696e-05 -0.000660054 0 0.000126061 0.000809943 0 0.000764361 0.000295682 0 
0.000166862 0.000630623 0 0.000516462 -0.00046707 0 -0.000563585 -0.000389606 0 
-0.000622598 -1.40238e-05 0 0.000629891 0.000171529 0 2.5614e-06 -0.000299794 0 
8.6901e-05 -0.00024329 0 0.000272045 -0.000136982 0 -0.00075148 0.000138321 0 
0.000209366 -0.000599589 0 0.000324913 -0.000630055 0 0.000614044 0.00041245 0 
0.00049651 -0.000573327 0 0.000394822 -0.000507321 0 -0.000173714 -0.000206698 0 
0.000264897 5.63722e-05 0 0.000247997 0.000152811 0 -4.63327e-05 -0.000920208 0 
9.18688e-05 0.000258626 0 -5.54111e-06 0.000290558 0 -0.000184219 0.000201484 0 
-0.000263559 0.000142267 0 -0.000256427 5.13624e-05 0 -0.000336894 -2.06179e-06 0 
-0.000228499 -4.2388e-05 0 -0.00017589 0.000106626 0 -0.000769947 -0.000133367 0 
0.000767591 -0.000500293 0 -5.05874e-05 0.000737978 0 0.000754456 -3.51771e-06 0 
0.00064691 -6.15298e-05 0 0.000630483 -0.00018134 0 0.000749187 -0.000265543 0 
-0.000760805 -0.000462521 0 0.000638155 6.09315e-05 0 -4.46661e-05 0.000922995 0 
-2.37945e-05 0.000207237 0 0.000776979 0.000500181 0 -0.000605691 0.000527596 0 
-0.000377914 -0.000653727 0 -0.000372325 -0.000526022 0 -0.000275829 -0.000589621 0 
-0.000254285 -0.000710579 0 -0.000379307 0.000656222 0 -0.000379818 0.00052718 0 
-0.000266817 0.000721555 0 -0.000150544 0.000668174 0 0.000381963 0.00065079 0 
0.000493113 0.000590432 0 0.000505439 0.000463708 0 -0.000269094 0.000596608 0 
0.000385815 0.000532045 0 0.000283599 0.0005899 0 -0.000176405 -0.000108505 0 
-0.000278769 -0.000475415 0 0.000185395 2.33014e-06 0 0.000186773 0.000517571 0 
0.000540032 -8.68444e-05 0 -0.000600694 -0.000514877 0 -0.00063703 8.98033e-05 0 
-0.000459677 0.000335729 0 -0.000338836 -0.000100751 0 -0.000457327 0.000432721 0 
-8.72007e-06 -0.000210238 0 0.000156073 0.000129496 0 -7.70692e-05 -0.000555049 0 
0.00036091 -0.000389728 0 0.000531628 0.000120564 0 -0.000285451 0.000435562 0 
0.000192719 -0.000494604 0 0.00041642 0.00039368 0 -0.000135943 0.000554637 0 
-0.000170665 -0.000610079 0 -0.000666304 0.000434981 0 -0.000758736 0.000479231 0 
-0.000470189 -0.000458901 0 0.000203433 -8.59809e-05 0 0.000101846 0.000170114 0 
-0.00035513 -0.00040726 0 0.000100184 -0.000165831 0 2.96286e-05 0.00081537 0 
0.000720946 0.000381836 0 -0.000539809 -0.000292001 0 0.00052211 -0.000182426 0 
-6.41339e-05 -0.000753908 0 0.000638039 -0.000299861 0 -0.000605136 -0.000230182 0 
-3.41638e-05 -0.000145561 0 -0.000104037 0.000172396 0 -0.000808575 -0.00042774 0 
-0.000807207 -0.000465052 0 -0.00080817 0.000429771 0 -0.000806589 0.000469738 0 
-9.50634e-05 -0.000178909 0 0.000247777 0.000445058 0 1.48293e-05 -0.000814201 0 
-4.11555e-05 0.000140955 0 0.000276104 -0.000536845 0 0.000765969 -0.000436638 0 
0.000780871 -0.000362769 0 0.000424176 -0.000642018 0 0.00053413 -0.000368009 0 
-0.000416333 4.17911e-05 0 -0.000133891 -6.23822e-05 0 4.2574e-05 0.000206312 0 
[...]
POINT_DATA 626
VECTORS displacement float
-1.74392e-06 3.09593e-05 1.80572e-05
1.73561e-06 3.09783e-05 1.81023e-05
-2.59905e-05 1.69952e-05 1.80893e-05
-2.5845e-05 1.60354e-05 1.80539e-05
-2.77248e-05 1.39752e-05 1.80713e-05
-2.77178e-05 -1.40215e-05 1.80967e-05
-2.58162e-05 -1.60735e-05 1.81081e-05
-2.59867e-05 -1.70133e-05 1.81692e-05
-1.67738e-06 -3.0963e-05 1.80537e-05
1.75542e-06 -3.09645e-05 1.81041e-05
2.59478e-05 -1.69831e-05 1.80457e-05
2.77212e-05 -1.39391e-05 1.80456e-05
2.76766e-05 1.39919e-05 1.80939e-05
2.59192e-05 1.69954e-05 1.80483e-05
0 0 0
-1.74392e-06 3.09593e-05 -1.80572e-05
1.73561e-06 3.09783e-05 -1.81023e-05
-2.59905e-05 1.69952e-05 -1.80893e-05
-2.5845e-05 1.60354e-05 -1.80539e-05
-2.77248e-05 1.39752e-05 -1.80713e-05
-2.77178e-05 -1.40215e-05 -1.80967e-05
-2.58162e-05 -1.60735e-05 -1.81081e-05
-2.59867e-05 -1.70133e-05 -1.81692e-05
-1.67738e-06 -3.0963e-05 -1.80537e-05
1.75542e-06 -3.09645e-05 -1.81041e-05
2.59478e-05 -1.69831e-05 -1.80457e-05
2.77212e-05 -1.39391e-05 -1.80456e-05
2.76766e-05 1.39919e-05 -1.80939e-05
2.59192e-05 1.69954e-05 -1.80483e-05
0 0 0
2.48738e-08 3.01591e-05 1.80364e-05
-2.11447e-05 1.87152e-05 1.75522e-05
-1.72361e-05 1.98373e-05 1.69235e-05
-1.40098e-05 2.10583e-05 1.65578e-05
-1.1209e-05 2.26693e-05 1.65517e-05
-8.52535e-06 2.48377e-05 1.69041e-05
-5.56828e-06 2.76267e-05 1.75399e-05
-2.64539e-05 1.46815e-05 1.80357e-05
-2.67732e-05 -9.01359e-06 1.75798e-05
-2.5811e-05 -5.0368e-06 1.69287e-05
-2.52594e-05 -1.63666e-06 1.65743e-05
-2.52624e-05 1.60829e-06 1.65772e-05
-2.58033e-05 5.02419e-06 1.69269e-05
-2.67594e-05 8.98667e-06 1.75664e-05
-2.64408e-05 -1.47278e-05 1.80645e-05
-5.54153e-06 -2.76411e-05 1.75321e-05
-8.47787e-06 -2.48467e-05 1.69034e-05
-1.11722e-05 -2.26888e-05 1.6559e-05
-1.39735e-05 -2.10913e-05 1.65624e-05
-1.72185e-05 -1.98727e-05 1.69394e-05
-2.11382e-05 -1.8752e-05 1.75647e-05
8.98127e-08 -3.01438e-05 1.80316e-05
2.1128e-05 -1.86277e-05 1.75139e-05
1.72482e-05 -1.97657e-05 1.68756e-05
1.40367e-05 -2.10152e-05 1.65145e-05
1.12271e-05 -2.25975e-05 1.6549e-05
8.58248e-06 -2.47849e-05 1.68769e-05
5.65512e-06 -2.76314e-05 1.75374e-05
2.61287e-05 -1.5062e-05 1.80306e-05
2.67213e-05 8.94049e-06 1.7504e-05
2.57269e-05 5.05092e-06 1.69111e-05
2.52115e-05 1.62378e-06 1.65261e-05
2.52086e-05 -1.59988e-06 1.65244e-05
2.57555e-05 -4.99871e-06 1.68911e-05
2.67034e-05 -8.91923e-06 1.75121e-05
2.61117e-05 1.50632e-05 1.80276e-05
5.63357e-06 2.76227e-05 1.7512e-05
8.50986e-06 2.48116e-05 1.69139e-05
1.12191e-05 2.26455e-05 1.65322e-05
1.40074e-05 2.10262e-05 1.65276e-05
1.72252e-05 1.97969e-05 1.68878e-05
2.1119e-05 1.86373e-05 1.75278e-05
0 0 0
0 0 0
0 0 0
0 0 0
0 0 0
0 0 0
2.48738e-08 3.01591e-05 -1.80364e-05
-2.11447e-05 1.87152e-05 -1.75522e-05
-1.72361e-05 1.98373e-05 -1.69235e-05
-1.40098e-05 2.10583e-05 -1.65578e-05
-1.1209e-05 2.26693e-05 -1.65517e-05
-8.52535e-06 2.48377e-05 -1.69041e-05
-5.56828e-06 2.76267e-05 -1.75399e-05
-2.64539e-05 1.46815e-05 -1.80357e-05
-2.67732e-05 -9.01359e-06 -1.75798e-05
-2.5811e-05 -5.0368e-06 -1.69287e-05
-2.52594e-05 -1.63666e-06 -1.65743e-05
-2.52624e-05 1.60829e-06 -1.65772e-05
-2.58033e-05 5.02419e-06 -1.69269e-05
-2.67594e-05 8.98667e-06 -1.75664e-05
-2.64408e-05 -1.47278e-05 -1.80645e-05
-5.54153e-06 -2.76411e-05 -1.75321e-05
-8.47787e-06 -2.48467e-05 -1.69034e-05
-1.11722e-05 -2.26888e-05 -1.6559e-05
-1.39735e-05 -2.10913e-05 -1.65624e-05
-1.72185e-05 -1.98727e-05 -1.69394e-05
-2.11382e-05 -1.8752e-05 -1.75647e-05
8.98127e-08 -3.01438e-05 -1.80316e-05
2.1128e-05 -1.86277e-05 -1.75139e-05
1.72482e-05 -1.97657e-05 -1.68756e-05
1.40367e-05 -2.10152e-05 -1.65145e-05
1.12271e-05 -2.25975e-05 -1.6549e-05
8.58248e-06 -2.47849e-05 -1.68769e-05
5.65512e-06 -2.76314e-05 -1.75374e-05
2.61287e-05 -1.5062e-05 -1.80306e-05
2.67213e-05 8.94049e-06 -1.7504e-05
2.57269e-05 5.05092e-06 -1.69111e-05
2.52115e-05 1.62378e-06 -1.65261e-05
2.52086e-05 -1.59988e-06 -1.65244e-05
2.57555e-05 -4.99871e-06 -1.68911e-05
2.67034e-05 -8.91923e-06 -1.75121e-05
2.61117e-05 1.50632e-05 -1.80276e-05
5.63357e-06 2.76227e-05 -1.7512e-05
8.50986e-06 2.48116e-05 -1.69139e-05
1.12191e-05 2.26455e-05 -1.65322e-05
1.40074e-05 2.10262e-05 -1.65276e-05
1.72252e-05 1.97969e-05 -1.68878e-05
2.1119e-05 1.86373e-05 -1.75278e-05
0 0 0
0 0 0
0 0 0
0 0 0
0 0 0
0 0 0
1.79394e-06 8.58871e-07 4.55313e-06
1.73807e-06 -8.25234e-07 4.46166e-06
4.32016e-07 1.84989e-06 4.49598e-06
4.3616e-07 -1.78088e-06 4.35692e-06
-1.84775e-06 2.09671e-08 4.42321e-06
-1.12325e-06 -1.30906e-06 4.15179e-06
-1.15937e-06 1.30698e-06 4.20058e-06
-2.25172e-05 -7.28921e-06 1.70025e-05
-2.22005e-05 7.3731e-06 1.69712e-05
-4.86119e-06 2.29028e-05 1.69396e-05
-4.85869e-06 -2.3136e-05 1.69665e-05
1.74246e-05 1.56383e-05 1.69325e-05
1.75722e-05 -1.55392e-05 1.69417e-05
2.10776e-05 3.16459e-06 1.63272e-05
-1.39559e-05 1.71545e-05 1.64812e-05
-1.35939e-05 -1.67444e-05 1.64127e-05
7.76928e-06 1.98234e-05 1.6334e-05
7.68625e-06 -2.0314e-05 1.64053e-05
2.14765e-05 -3.44451e-06 1.6403e-05
-2.11069e-05 6.58824e-09 1.62495e-05
-2.24243e-05 1.10018e-05 1.7456e-05
-1.87544e-05 9.25645e-06 1.66297e-05
-1.79862e-05 5.7966e-06 1.6039e-05
-1.49868e-05 7.44977e-06 1.5489e-05
-1.42272e-05 4.30856e-06 1.48324e-05
-1.15348e-05 5.745e-06 1.40973e-05
-1.08601e-05 3.06932e-06 1.33761e-05
-8.40208e-06 4.30569e-06 1.24067e-05
-9.06055e-06 7.01475e-06 1.34589e-05
-6.20527e-06 5.48953e-06 1.16912e-05
-6.82962e-06 8.25103e-06 1.30824e-05
-4.2822e-06 6.67615e-06 1.14527e-05
-4.80094e-06 9.61178e-06 1.30964e-05
-2.40133e-06 7.99484e-06 1.17252e-05
-2.8134e-06 1.11694e-05 1.34774e-05
-4.75506e-07 9.59712e-06 1.25033e-05
-7.38504e-07 1.29994e-05 1.41443e-05
1.73141e-06 1.152e-05 1.35375e-05
-5.53578e-06 1.27029e-05 1.44396e-05
1.68539e-06 8.22552e-06 1.17498e-05
4.00495e-06 1.01228e-05 1.31534e-05
3.70604e-06 7.09928e-06 1.14804e-05
6.06857e-06 8.96841e-06 1.31158e-05
5.7679e-06 6.10794e-06 1.17378e-05
8.3597e-06 8.02188e-06 1.34945e-05
8.10719e-06 5.19626e-06 1.25027e-05
1.09561e-05 7.09843e-06 1.41495e-05
1.0748e-05 4.32364e-06 1.35016e-05
8.5322e-06 1.10397e-05 1.44634e-05
7.93918e-06 2.64424e-06 1.17296e-05
1.06481e-05 1.73754e-06 1.31065e-05
7.95017e-06 3.58828e-07 1.14578e-05
1.08085e-05 -7.59259e-07 1.31266e-05
8.11317e-06 -1.93817e-06 1.17113e-05
1.11004e-05 -3.3135e-06 1.34864e-05
8.47135e-06 -4.42482e-06 1.24464e-05
1.15059e-05 -6.00405e-06 1.4112e-05
8.9573e-06 -7.13949e-06 1.34306e-05
6.14867e-06 -5.49545e-06 1.16435e-05
6.64578e-06 -8.30247e-06 1.30207e-05
4.10597e-06 -6.58974e-06 1.13131e-05
4.52423e-06 -9.55272e-06 1.29908e-05
2.24271e-06 -7.85976e-06 1.15996e-05
2.48531e-06 -1.1004e-05 1.33535e-05
2.25329e-07 -9.37547e-06 1.23559e-05
3.3007e-07 -1.27723e-05 1.40364e-05
-1.91581e-06 -1.11529e-05 1.33795e-05
-1.84142e-06 -7.9231e-06 1.15844e-05
-4.16871e-06 -9.87676e-06 1.30875e-05
-3.81466e-06 -6.73176e-06 1.13193e-05
-6.34686e-06 -8.6637e-06 1.31018e-05
-5.89241e-06 -5.69908e-06 1.16306e-05
-8.50137e-06 -7.43724e-06 1.33822e-05
-8.16911e-06 -4.72896e-06 1.2411e-05
-1.10978e-05 -6.40401e-06 1.40725e-05
-4.37252e-06 -1.31258e-05 1.44363e-05
-1.08109e-05 -3.65139e-06 1.34417e-05
7.22754e-06 -1.1375e-05 1.42756e-05
-7.74316e-06 1.98306e-06 1.14951e-05
-1.32187e-05 1.03526e-06 1.42136e-05
1.72945e-06 1.50858e-05 1.49549e-05
1.37708e-05 4.62332e-07 1.43905e-05
1.38459e-05 6.10131e-06 1.49344e-05
-9.69598e-06 1.01983e-05 1.45352e-05
-5.417e-06 -3.19823e-06 1.01841e-05
-1.17159e-05 -9.29915e-06 1.48919e-05
1.18847e-05 -8.76193e-06 1.47899e-05
1.47847e-05 -7.47508e-06 1.54061e-05
-1.39625e-05 -5.24493e-06 1.48644e-05
2.79636e-06 -1.4519e-05 1.47989e-05
4.24631e-07 -1.65026e-05 1.54005e-05
3.51906e-06 4.39773e-06 9.58302e-06
1.40133e-05 9.30088e-06 1.54943e-05
1.79342e-05 8.14657e-06 1.63033e-05
-1.56785e-05 1.13975e-05 1.62362e-05
-1.0943e-06 1.67724e-05 1.5498e-05
1.90718e-06 1.96254e-05 1.63137e-05
-2.09225e-06 5.22102e-06 9.59952e-06
5.55494e-06 -7.84745e-07 9.59607e-06
3.58659e-06 -3.68422e-06 9.0838e-06
-1.77996e-06 -5.1795e-06 9.4515e-06
-2.24728e-05 -1.10129e-05 1.74768e-05
-1.88017e-05 -9.2432e-06 1.66537e-05
2.11517e-05 1.41672e-05 1.75081e-05
2.07576e-05 -1.43201e-05 1.7438e-05
-1.76481e-06 -2.54511e-05 1.75134e-05
-1.68233e-06 2.54151e-05 1.7518e-05
1.77164e-05 -1.19091e-05 1.66898e-05
2.06495e-05 -1.07531e-05 1.71185e-05
3.77632e-06 -1.89889e-05 1.61422e-05
7.68642e-07 -2.03497e-05 1.64855e-05
-1.94087e-05 -1.26528e-05 1.71457e-05
-1.37338e-05 -2.30738e-06 1.44746e-05
-1.6596e-05 -3.70218e-06 1.54804e-05
-1.03778e-05 -1.0966e-06 1.29546e-05
2.44563e-05 1.10749e-05 1.7654e-05
2.55018e-05 -1.24055e-05 1.78505e-05
2.64947e-06 2.67307e-05 1.76629e-05
2.52121e-06 -2.64183e-05 1.76318e-05
3.33994e-06 -2.30362e-05 1.70317e-05
-2.05428e-06 -1.83234e-05 1.59536e-05
4.05962e-06 2.37958e-05 1.7133e-05
2.26183e-05 8.38099e-06 1.71219e-05
4.61447e-06 1.73168e-05 1.57301e-05
1.44298e-05 -1.3122e-05 1.61401e-05
-1.57907e-05 -1.09868e-05 1.62173e-05
-1.68031e-05 -3.81509e-07 1.53802e-05
1.73093e-05 4.68843e-06 1.57285e-05
6.55308e-08 -6.38847e-06 1.02695e-05
1.74202e-06 -4.84931e-06 9.0943e-06
5.85153e-06 -2.93605e-06 1.03802e-05
-2.14483e-05 3.75133e-06 1.64616e-05
5.73046e-06 -1.62777e-05 1.55105e-05
9.08524e-06 -1.75025e-05 1.60004e-05
1.75755e-05 1.18839e-05 1.66749e-05
1.3997e-05 -1.63854e-05 1.6404e-05
1.07421e-05 -1.37917e-05 1.55529e-05
-3.5486e-06 -4.22094e-06 9.50266e-06
5.40007e-06 1.1387e-06 9.50095e-06
5.21899e-06 3.22345e-06 1.00492e-05
-1.7499e-06 -2.83592e-05 1.78791e-05
1.89239e-06 5.29983e-06 9.58636e-06
-1.13847e-07 6.1061e-06 1.00407e-05
-3.78559e-06 4.12847e-06 9.58031e-06
-5.62369e-06 3.03473e-06 1.02873e-05
-5.16637e-06 1.04086e-06 9.21544e-06
-7.52863e-06 -6.1751e-08 1.11746e-05
-4.3351e-06 -8.10413e-07 8.38351e-06
-3.1091e-06 1.87264e-06 7.37551e-06
-2.20854e-05 -3.60857e-06 1.65186e-05
2.34102e-05 -1.56904e-05 1.78384e-05
-1.50745e-06 2.11719e-05 1.66847e-05
2.12658e-05 -8.45387e-08 1.62286e-05
1.76255e-05 -1.64714e-06 1.55843e-05
1.73511e-05 -4.94266e-06 1.57735e-05
2.18956e-05 -7.45264e-06 1.69162e-05
-2.31861e-05 -1.42569e-05 1.7835e-05
1.7328e-05 1.64921e-06 1.55114e-05
-1.73411e-06 2.84778e-05 1.78964e-05
-4.22142e-07 3.68402e-06 7.49678e-06
2.3776e-05 1.57448e-05 1.78868e-05
-1.75007e-05 1.5645e-05 1.69776e-05
-1.06283e-05 -1.84697e-05 1.62579e-05
-1.01016e-05 -1.43451e-05 1.55745e-05
-7.50925e-06 -1.6098e-05 1.56249e-05
-7.32348e-06 -2.01244e-05 1.63981e-05
-1.07066e-05 1.85389e-05 1.62696e-05
-1.03494e-05 1.43869e-05 1.56222e-05
-7.77406e-06 2.04964e-05 1.6447e-05
-4.25377e-06 1.86133e-05 1.60557e-05
1.07618e-05 1.8349e-05 1.6229e-05
1.38944e-05 1.69381e-05 1.64338e-05
1.40447e-05 1.29754e-05 1.6054e-05
-7.36302e-06 1.62915e-05 1.56413e-05
1.05272e-05 1.45499e-05 1.56481e-05
7.75026e-06 1.60955e-05 1.56168e-05
-3.11698e-06 -1.89908e-06 7.39464e-06
-7.25908e-06 -1.24244e-05 1.46279e-05
3.00914e-06 4.03668e-08 6.60227e-06
4.87352e-06 1.35254e-05 1.46209e-05
1.40788e-05 -2.26084e-06 1.45732e-05
-1.72931e-05 -1.52194e-05 1.69481e-05
-1.73699e-05 2.4208e-06 1.56006e-05
-1.22071e-05 8.91366e-06 1.49462e-05
-7.70707e-06 -2.29295e-06 1.1557e-05
-1.24522e-05 1.18149e-05 1.55428e-05
-1.4276e-07 -3.75485e-06 7.55568e-06
2.73068e-06 2.27245e-06 7.25337e-06
-2.00426e-06 -1.46533e-05 1.48108e-05
9.36693e-06 -1.00702e-05 1.43921e-05
1.38635e-05 3.15844e-06 1.45689e-05
-7.34149e-06 1.12016e-05 1.4263e-05
4.9982e-06 -1.27773e-05 1.4372e-05
1.1034e-05 1.04326e-05 1.49224e-05
-3.59715e-06 1.46882e-05 1.49108e-05
-4.63637e-06 -1.66201e-05 1.55516e-05
-1.95107e-05 1.28947e-05 1.71638e-05
-2.31309e-05 1.48606e-05 1.78457e-05
-1.29075e-05 -1.26885e-05 1.58153e-05
3.76143e-06 -1.58639e-06 7.90853e-06
1.76468e-06 2.92276e-06 7.08584e-06
-9.23231e-06 -1.06116e-05 1.45346e-05
1.72802e-06 -2.82362e-06 6.93244e-06
9.94842e-07 2.41213e-05 1.7311e-05
2.13718e-05 1.11959e-05 1.73012e-05
-1.46675e-05 -7.95493e-06 1.54881e-05
1.37108e-05 -4.78727e-06 1.46934e-05
-1.9102e-06 -2.17671e-05 1.68054e-05
1.80639e-05 -8.42072e-06 1.63435e-05
-1.66822e-05 -6.32982e-06 1.57852e-05
-4.32967e-07 -1.92261e-06 4.79941e-06
-1.80567e-06 2.99594e-06 7.17861e-06
-2.50561e-05 -1.29841e-05 1.79246e-05
-2.51313e-05 -1.45096e-05 1.80044e-05
-2.50493e-05 1.3036e-05 1.79084e-05
-2.51222e-05 1.46523e-05 1.79844e-05
-1.64873e-06 -3.12536e-06 7.21135e-06
6.3292e-06 1.13707e-05 1.40793e-05
5.33761e-07 -2.40905e-05 1.73048e-05
-5.22858e-07 1.80982e-06 4.64592e-06
7.40894e-06 -1.43466e-05 1.51553e-05
2.33069e-05 -1.32117e-05 1.77312e-05
2.36368e-05 -1.05396e-05 1.74933e-05
1.19908e-05 -1.82146e-05 1.62962e-05
1.4733e-05 -1.01486e-05 1.57984e-05
-1.0029e-05 1.00144e-06 1.27572e-05
-1.74028e-06 -8.16026e-07 4.72438e-06
7.69192e-07 3.70898e-06 7.57466e-06
2.34346e-06 -1.99748e-06 6.5566e-06
2.01604e-05 5.89907e-06 1.64564e-05
5.07097e-06 2.06e-05 1.64988e-05
3.42126e-07 -2.76848e-05 1.78564e-05
-1.73149e-06 7.09219e-07 4.60723e-06
-3.21204e-06 6.23149e-07 6.8255e-06
3.57782e-06 1.47566e-06 7.63816e-06
4.99242e-07 2.83286e-05 1.79296e-05
2.47645e-05 1.37364e-05 1.79207e-05
-2.03322e-05 1.55384e-05 1.74316e-05
1.17889e-06 1.36468e-06 4.46073e-06
-2.06435e-05 -1.5731e-05 1.75301e-05
-1.90027e-05 -2.32268e-06 1.59491e-05
-1.9563e-05 -5.58615e-06 1.63351e-05
9.05831e-07 -3.24829e-06 7.00751e-06
-4.36682e-06 -1.97932e-05 1.63247e-05
-7.93889e-06 1.38372e-05 1.5104e-05
1.16593e-06 -1.30438e-06 4.34015e-06
1.19368e-05 -1.12306e-05 1.5295e-05
6.13403e-06 -2.27005e-05 1.68233e-05
-1.45251e-05 1.43581e-05 1.63265e-05
7.93067e-06 1.33239e-05 1.49509e-05
1.79394e-06 8.58871e-07 -4.55313e-06
1.73807e-06 -8.25234e-07 -4.46166e-06
4.32016e-07 1.84989e-06 -4.49598e-06
4.3616e-07 -1.78088e-06 -4.35692e-06
-1.84775e-06 2.09671e-08 -4.42321e-06
-1.12325e-06 -1.30906e-06 -4.15179e-06
-1.15937e-06 1.30698e-06 -4.20058e-06
-2.25172e-05 -7.28921e-06 -1.70025e-05
-2.22005e-05 7.3731e-06 -1.69712e-05
-4.86119e-06 2.29028e-05 -1.69396e-05
-4.85869e-06 -2.3136e-05 -1.69665e-05
1.74246e-05 1.56383e-05 -1.69325e-05
1.75722e-05 -1.55392e-05 -1.69417e-05
2.10776e-05 3.16459e-06 -1.63272e-05
-1.39559e-05 1.71545e-05 -1.64812e-05
-1.35939e-05 -1.67444e-05 -1.64127e-05
7.76928e-06 1.98234e-05 -1.6334e-05
7.68625e-06 -2.0314e-05 -1.64053e-05
2.14765e-05 -3.44451e-06 -1.6403e-05
-2.11069e-05 6.58824e-09 -1.62495e-05
-2.24243e-05 1.10018e-05 -1.7456e-05
-1.87544e-05 9.25645e-06 -1.66297e-05
-1.79862e-05 5.7966e-06 -1.6039e-05
-1.49868e-05 7.44977e-06 -1.5489e-05
-1.42272e-05 4.30856e-06 -1.48324e-05
-1.15348e-05 5.745e-06 -1.40973e-05
-1.08601e-05 3.06932e-06 -1.33761e-05
-8.40208e-06 4.30569e-06 -1.24067e-05
-9.06055e-06 7.01475e-06 -1.34589e-05
-6.20527e-06 5.48953e-06 -1.16912e-05
-6.82962e-06 8.25103e-06 -1.30824e-05
-4.2822e-06 6.67615e-06 -1.14527e-05
-4.80094e-06 9.61178e-06 -1.30964e-05
-2.40133e-06 7.99484e-06 -1.17252e-05
-2.8134e-06 1.11694e-05 -1.34774e-05
-4.75506e-07 9.59712e-06 -1.25033e-05
-7.38504e-07 1.29994e-05 -1.41443e-05
1.73141e-06 1.152e-05 -1.35375e-05
-5.53578e-06 1.27029e-05 -1.44396e-05
1.68539e-06 8.22552e-06 -1.17498e-05
4.00495e-06 1.01228e-05 -1.31534e-05
3.70604e-06 7.09928e-06 -1.14804e-05
6.06857e-06 8.96841e-06 -1.31158e-05
5.7679e-06 6.10794e-06 -1.17378e-05
8.3597e-06 8.02188e-06 -1.34945e-05
8.10719e-06 5.19626e-06 -1.25027e-05
1.09561e-05 7.09843e-06 -1.41495e-05
1.0748e-05 4.32364e-06 -1.35016e-05
8.5322e-06 1.10397e-05 -1.44634e-05
7.93918e-06 2.64424e-06 -1.17296e-05
1.06481e-05 1.73754e-06 -1.31065e-05
7.95017e-06 3.58828e-07 -1.14578e-05
1.08085e-05 -7.59259e-07 -1.31266e-05
8.11317e-06 -1.93817e-06 -1.17113e-05
1.11004e-05 -3.3135e-06 -1.34864e-05
8.47135e-06 -4.42482e-06 -1.24464e-05
1.15059e-05 -6.00405e-06 -1.4112e-05
8.9573e-06 -7.13949e-06 -1.34306e-05
6.14867e-06 -5.49545e-06 -1.16435e-05
6.64578e-06 -8.30247e-06 -1.30207e-05
4.10597e-06 -6.58974e-06 -1.13131e-05
4.52423e-06 -9.55272e-06 -1.29908e-05
2.24271e-06 -7.85976e-06 -1.15996e-05
2.48531e-06 -1.1004e-05 -1.33535e-05
2.25329e-07 -9.37547e-06 -1.23559e-05
3.3007e-07 -1.27723e-05 -1.40364e-05
-1.91581e-06 -1.11529e-05 -1.33795e-05
-1.84142e-06 -7.9231e-06 -1.15844e-05
-4.16871e-06 -9.87676e-06 -1.30875e-05
-3.81466e-06 -6.73176e-06 -1.13193e-05
-6.34686e-06 -8.6637e-06 -1.31018e-05
-5.89241e-06 -5.69908e-06 -1.16306e-05
-8.50137e-06 -7.43724e-06 -1.33822e-05
-8.16911e-06 -4.72896e-06 -1.2411e-05
-1.10978e-05 -6.40401e-06 -1.40725e-05
-4.37252e-06 -1.31258e-05 -1.44363e-05
-1.08109e-05 -3.65139e-06 -1.34417e-05
7.22754e-06 -1.1375e-05 -1.42756e-05
-7.74316e-06 1.98306e-06 -1.14951e-05
-1.32187e-05 1.03526e-06 -1.42136e-05
1.72945e-06 1.50858e-05 -1.49549e-05
1.37708e-05 4.62332e-07 -1.43905e-05
1.38459e-05 6.10131e-06 -1.49344e-05
-9.69598e-06 1.01983e-05 -1.45352e-05
-5.417e-06 -3.19823e-06 -1.01841e-05
-1.17159e-05 -9.29915e-06 -1.48919e-05
1.18847e-05 -8.76193e-06 -1.47899e-05
1.47847e-05 -7.47508e-06 -1.54061e-05
-1.39625e-05 -5.24493e-06 -1.48644e-05
2.79636e-06 -1.4519e-05 -1.47989e-05
4.24631e-07 -1.65026e-05 -1.54005e-05
3.51906e-06 4.39773e-06 -9.58302e-06
1.40133e-05 9.30088e-06 -1.54943e-05
1.79342e-05 8.14657e-06 -1.63033e-05
-1.56785e-05 1.13975e-05 -1.62362e-05
-1.0943e-06 1.67724e-05 -1.5498e-05
1.90718e-06 1.96254e-05 -1.63137e-05
-2.09225e-06 5.22102e-06 -9.59952e-06
5.55494e-06 -7.84745e-07 -9.59607e-06
3.58659e-06 -3.68422e-06 -9.0838e-06
-1.77996e-06 -5.1795e-06 -9.4515e-06
-2.24728e-05 -1.10129e-05 -1.74768e-05
-1.88017e-05 -9.2432e-06 -1.66537e-05
2.11517e-05 1.41672e-05 -1.75081e-05
2.07576e-05 -1.43201e-05 -1.7438e-05
-1.76481e-06 -2.54511e-05 -1.75134e-05
-1.68233e-06 2.54151e-05 -1.7518e-05
1.77164e-05 -1.19091e-05 -1.66898e-05
2.06495e-05 -1.07531e-05 -1.71185e-05
3.77632e-06 -1.89889e-05 -1.61422e-05
7.68642e-07 -2.03497e-05 -1.64855e-05
-1.94087e-05 -1.26528e-05 -1.71457e-05
-1.37338e-05 -2.30738e-06 -1.44746e-05
-1.6596e-05 -3.70218e-06 -1.54804e-05
-1.03778e-05 -1.0966e-06 -1.29546e-05
2.44563e-05 1.10749e-05 -1.7654e-05
2.55018e-05 -1.24055e-05 -1.78505e-05
2.64947e-06 2.67307e-05 -1.76629e-05
2.52121e-06 -2.64183e-05 -1.76318e-05
3.33994e-06 -2.30362e-05 -1.70317e-05
-2.05428e-06 -1.83234e-05 -1.59536e-05
4.05962e-06 2.37958e-05 -1.7133e-05
2.26183e-05 8.38099e-06 -1.71219e-05
4.61447e-06 1.73168e-05 -1.57301e-05
1.44298e-05 -1.3122e-05 -1.61401e-05
-1.57907e-05 -1.09868e-05 -1.62173e-05
-1.68031e-05 -3.81509e-07 -1.53802e-05
1.73093e-05 4.68843e-06 -1.57285e-05
6.55308e-08 -6.38847e-06 -1.02695e-05
1.74202e-06 -4.84931e-06 -9.0943e-06
5.85153e-06 -2.93605e-06 -1.03802e-05
-2.14483e-05 3.75133e-06 -1.64616e-05
5.73046e-06 -1.62777e-05 -1.55105e-05
9.08524e-06 -1.75025e-05 -1.60004e-05
1.75755e-05 1.18839e-05 -1.66749e-05
1.3997e-05 -1.63854e-05 -1.6404e-05
1.07421e-05 -1.37917e-05 -1.55529e-05
-3.5486e-06 -4.22094e-06 -9.50266e-06
5.40007e-06 1.1387e-06 -9.50095e-06
5.21899e-06 3.22345e-06 -1.00492e-05
-1.7499e-06 -2.83592e-05 -1.78791e-05
1.89239e-06 5.29983e-06 -9.58636e-06
-1.13847e-07 6.1061e-06 -1.00407e-05
-3.78559e-06 4.12847e-06 -9.58031e-06
-5.62369e-06 3.03473e-06 -1.02873e-05
-5.16637e-06 1.04086e-06 -9.21544e-06
-7.52863e-06 -6.1751e-08 -1.11746e-05
-4.3351e-06 -8.10413e-07 -8.38351e-06
-3.1091e-06 1.87264e-06 -7.37551e-06
-2.20854e-05 -3.60857e-06 -1.65186e-05
2.34102e-05 -1.56904e-05 -1.78384e-05
-1.50745e-06 2.11719e-05 -1.66847e-05
2.12658e-05 -8.45387e-08 -1.62286e-05
1.76255e-05 -1.64714e-06 -1.55843e-05
1.73511e-05 -4.94266e-06 -1.57735e-05
2.18956e-05 -7.45264e-06 -1.69162e-05
-2.31861e-05 -1.42569e-05 -1.7835e-05
1.7328e-05 1.64921e-06 -1.55114e-05
-1.73411e-06 2.84778e-05 -1.78964e-05