# vtk DataFile Version 3.0
vtk output at time 18576
ASCII
DATASET UNSTRUCTURED_GRID
POINTS 626 float
-3.68058e-05 0.000978749 0 3.68058e-05 0.000978749 0 -0.000829194 0.00052125 0 
-0.0008235 0.0005 0 -0.000866 0.0004575 0 -0.000866 -0.0004575 0 
-0.0008235 -0.0005 0 -0.000829194 -0.00052125 0 -3.68058e-05 -0.000978749 0 
3.68058e-05 -0.000978749 0 0.000829194 -0.00052125 0 0.000866 -0.0004575 0 
0.000866 0.0004575 0 0.000829194 0.00052125 0 8.5e-05 0 0 
-3.68058e-05 0.000978749 -0.001 3.68058e-05 0.000978749 -0.001 -0.000829194 0.00052125 -0.001 
-0.0008235 0.0005 -0.001 -0.000866 0.0004575 -0.001 -0.000866 -0.0004575 -0.001 
-0.0008235 -0.0005 -0.001 -0.000829194 -0.00052125 -0.001 -3.68058e-05 -0.000978749 -0.001 
3.68058e-05 -0.000978749 -0.001 0.000829194 -0.00052125 -0.001 0.000866 -0.0004575 -0.001 
0.000866 0.0004575 -0.001 0.000829194 0.00052125 -0.001 8.5e-05 0 -0.001 
8.46223e-17 0.0009575 0 -0.000715996 0.000586607 0 -0.000602797 0.000651965 0 
-0.000489599 0.000717321 0 -0.000376401 0.000782678 0 -0.000263202 0.000848036 0 
-0.000150004 0.000913393 0 -0.000835948 0.000469948 0 -0.000866 -0.000326786 0 
-0.000866 -0.000196071 0 -0.000866 -6.53571e-05 0 -0.000866 6.53571e-05 0 
-0.000866 0.000196071 0 -0.000866 0.000326786 0 -0.000835948 -0.000469948 0 
-0.000150004 -0.000913393 0 -0.000263202 -0.000848036 0 -0.000376401 -0.000782678 0 
-0.000489599 -0.000717321 0 -0.000602797 -0.000651965 0 -0.000715996 -0.000586607 0 
8.47648e-17 -0.0009575 0 0.000715996 -0.000586607 0 0.000602797 -0.000651965 0 
0.000489599 -0.000717321 0 0.000376401 -0.000782678 0 0.000263202 -0.000848036 0 
0.000150004 -0.000913393 0 0.000829194 -0.00047875 0 0.000866 0.000326786 0 
0.000866 0.000196071 0 0.000866 6.53571e-05 0 0.000866 -6.53571e-05 0 
0.000866 -0.000196071 0 0.000866 -0.000326786 0 0.000829194 0.00047875 0 
0.000150004 0.000913393 0 0.000263202 0.000848036 0 0.000376401 0.000782678 0 
0.000489599 0.000717321 0 0.000602797 0.000651965 0 0.000715996 0.000586607 0 
5.29966e-05 6.64557e-05 0 -1.89143e-05 8.28689e-05 0 -7.65824e-05 3.68801e-05 0 
-7.65824e-05 -3.68801e-05 0 -1.89143e-05 -8.28689e-05 0 5.29966e-05 -6.64557e-05 0 
8.46223e-17 0.0009575 -0.001 -0.000715996 0.000586607 -0.001 -0.000602797 0.000651965 -0.001 
-0.000489599 0.000717321 -0.001 -0.000376401 0.000782678 -0.001 -0.000263202 0.000848036 -0.001 
-0.000150004 0.000913393 -0.001 -0.000835948 0.000469948 -0.001 -0.000866 -0.000326786 -0.001 
-0.000866 -0.000196071 -0.001 -0.000866 -6.53571e-05 -0.001 -0.000866 6.53571e-05 -0.001 
-0.000866 0.000196071 -0.001 -0.000866 0.000326786 -0.001 -0.000835948 -0.000469948 -0.001 
-0.000150004 -0.000913393 -0.001 -0.000263202 -0.000848036 -0.001 -0.000376401 -0.000782678 -0.001 
-0.000489599 -0.000717321 -0.001 -0.000602797 -0.000651965 -0.001 -0.000715996 -0.000586607 -0.001 
8.47648e-17 -0.0009575 -0.001 0.000715996 -0.000586607 -0.001 0.000602797 -0.000651965 -0.001 
0.000489599 -0.000717321 -0.001 0.000376401 -0.000782678 -0.001 0.000263202 -0.000848036 -0.001 
0.000150004 -0.000913393 -0.001 0.000829194 -0.00047875 -0.001 0.000866 0.000326786 -0.001 
0.000866 0.000196071 -0.001 0.000866 6.53571e-05 -0.001 0.000866 -6.53571e-05 -0.001 
0.000866 -0.000196071 -0.001 0.000866 -0.000326786 -0.001 0.000829194 0.00047875 -0.001 
0.000150004 0.000913393 -0.001 0.000263202 0.000848036 -0.001 0.000376401 0.000782678 -0.001 
0.000489599 0.000717321 -0.001 0.000602797 0.000651965 -0.001 0.000715996 0.000586607 -0.001 
5.29966e-05 6.64557e-05 -0.001 -1.89143e-05 8.28689e-05 -0.001 -7.65824e-05 3.68801e-05 -0.001 
-7.65824e-05 -3.68801e-05 -0.001 -1.89143e-05 -8.28689e-05 -0.001 5.29966e-05 -6.64557e-05 -0.001 
0.000131234 6.38474e-05 0 0.00012964 -6.2443e-05 0 3.13827e-05 0.0001394 0 
3.12554e-05 -0.000136939 0 -0.000140461 8.25467e-19 0 -8.90565e-05 -0.000102707 0 
-9.04142e-05 0.000102872 0 -0.000765769 -0.00025965 0 -0.000756873 0.000262774 0 
-0.00015609 0.000787505 0 -0.000155807 -0.00079355 0 0.000605069 0.000528035 0 
0.000608694 -0.00052497 0 0.000744069 0.000116929 0 -0.000494418 0.000596218 0 
-0.000483866 -0.000584648 0 0.000269496 0.000702219 0 0.000263201 -0.000717324 0 
0.000754429 -0.000127825 0 -0.000748858 5.84659e-07 0 -0.000747838 0.000373886 0 
-0.0006542 0.000324842 0 -0.000645137 0.000210123 0 -0.000550884 0.000274171 0 
-0.000538857 0.000163195 0 -0.00045062 0.000224461 0 -0.000438393 0.000123907 0 
-0.000354088 0.000181668 0 -0.000363908 0.000282171 0 -0.000270361 0.000239477 0 
-0.000279138 0.000337653 0 -0.000188888 0.000294791 0 -0.000196448 0.000393271 0 
-0.000104767 0.000348259 0 -0.000113332 0.000449012 0 -2.01066e-05 0.000403223 0 
-2.89189e-05 0.000507105 0 6.9524e-05 0.000461596 0 -0.000213644 0.000490203 0 
7.33757e-05 0.000357726 0 0.000163331 0.00041299 0 0.000163359 0.000313022 0 
0.000248077 0.000366368 0 0.000250914 0.000265758 0 0.000335709 0.000322266 0 
0.000340555 0.000218148 0 0.000427299 0.000276717 0 0.000431508 0.000173093 0 
0.000328731 0.000425633 0 0.00034586 0.000114823 0 0.000435362 7.05241e-05 0 
0.000350892 1.5455e-05 0 0.000441547 -3.11896e-05 0 0.000353547 -8.47783e-05 0 
0.000445767 -0.000132964 0 0.000356135 -0.000186358 0 0.000449094 -0.000234674 0 
0.000359978 -0.000287876 0 0.00026856 -0.000240545 0 0.000271895 -0.000341045 0 
0.000181792 -0.00029305 0 0.00018533 -0.000392851 0 9.75701e-05 -0.00034483 0 
9.98764e-05 -0.000444884 0 8.75116e-06 -0.000396343 0 1.20916e-05 -0.000500496 0 
-7.83929e-05 -0.000449843 0 -8.1471e-05 -0.000347249 0 -0.000171566 -0.000403733 0 
-0.000169889 -0.000298891 0 -0.000259867 -0.000354132 0 -0.000257696 -0.000249137 0 
-0.00034313 -0.000299896 0 -0.000344514 -0.000199127 0 -0.000434309 -0.000250039 0 
-0.000169832 -0.000505815 0 -0.000435227 -0.000146227 0 0.000280331 -0.000442424 0 
-0.000340889 8.76793e-05 0 -0.000515252 4.06198e-05 0 6.50491e-05 0.000568253 0 
0.00053278 1.74743e-05 0 0.000522071 0.000229831 0 -0.00037162 0.000391659 0 
-0.000255272 -0.000150439 0 -0.000442893 -0.000350705 0 0.000450067 -0.000332559 0 
0.000545175 -0.000276306 0 -0.000527797 -0.000197598 0 0.000105306 -0.000551033 0 
1.45836e-05 -0.000609147 0 0.00017145 0.000214453 0 0.000515525 0.000341711 0 
0.000636086 0.000290368 0 -0.000558657 0.000404468 0 -4.01232e-05 0.000616718 0 
6.60192e-05 0.000696422 0 -0.000101806 0.0002546 0 0.000271142 -3.88908e-05 0 
0.000179455 -0.00018534 0 -8.79553e-05 -0.000254307 0 -0.000749267 -0.000373451 0 
-0.000655941 -0.000323397 0 0.000709746 0.000466718 0 0.000698426 -0.000473086 0 
-5.25801e-05 -0.00084886 0 -4.93005e-05 0.000848038 0 0.000617396 -0.000413362 0 
0.000702056 -0.000369817 0 0.000131459 -0.000679171 0 2.48171e-05 -0.000715924 0 
-0.000664217 -0.00042729 0 -0.000528828 -8.80444e-05 0 -0.000611101 -0.000136672 0 
-0.000426972 -4.45841e-05 0 0.000800669 0.000378216 0 0.000821144 -0.000415062 0 
7.2799e-05 0.00088254 0 6.81831e-05 -0.00087503 0 0.000104963 -0.000788946 0 
-7.40696e-05 -0.000660054 0 0.000126061 0.000809943 0 0.000764361 0.000295682 0 
0.000166862 0.000630623 0 0.000516462 -0.00046707 0 -0.000563585 -0.000389606 0 
-0.000622598 -1.40238e-05 0 0.000629891 0.000171529 0 2.5614e-06 -0.000299794 0 
8.6901e-05 -0.00024329 0 0.000272045 -0.000136982 0 -0.00075148 0.000138321 0 
0.000209366 -0.000599589 0 0.000324913 -0.000630055 0 0.000614044 0.00041245 0 
0.00049651 -0.000573327 0 0.000394822 -0.000507321 0 -0.000173714 -0.000206698 0 
0.000264897 5.63722e-05 0 0.000247997 0.000152811 0 -4.63327e-05 -0.000920208 0 
9.18688e-05 0.000258626 0 -5.54111e-06 0.000290558 0 -0.000184219 0.000201484 0 
-0.000263559 0.000142267 0 -0.000256427 5.13624e-05 0 -0.000336894 -2.06179e-06 0 
-0.000228499 -4.2388e-05 0 -0.00017589 0.000106626 0 -0.000769947 -0.000133367 0 
0.000767591 -0.000500293 0 -5.05874e-05 0.000737978 0 0.000754456 -3.51771e-06 0 
0.00064691 -6.15298e-05 0 0.000630483 -0.00018134 0 0.000749187 -0.000265543 0 
-0.000760805 -0.000462521 0 0.000638155 6.09315e-05 0 -4.46661e-05 0.000922995 0 
-2.37945e-05 0.000207237 0 0.000776979 0.000500181 0 -0.000605691 0.000527596 0 
-0.000377914 -0.000653727 0 -0.000372325 -0.000526022 0 -0.000275829 -0.000589621 0 
-0.000254285 -0.000710579 0 -0.000379307 0.000656222 0 -0.000379818 0.00052718 0 
-0.000266817 0.000721555 0 -0.000150544 0.000668174 0 0.000381963 0.00065079 0 
0.000493113 0.000590432 0 0.000505439 0.000463708 0 -0.000269094 0.000596608 0 
0.000385815 0.000532045 0 0.000283599 0.0005899 0 -0.000176405 -0.000108505 0 
-0.000278769 -0.000475415 0 0.000185395 2.33014e-06 0 0.000186773 0.000517571 0 
0.000540032 -8.68444e-05 0 -0.000600694 -0.000514877 0 -0.00063703 8.98033e-05 0 
-0.000459677 0.000335729 0 -0.000338836 -0.000100751 0 -0.000457327 0.000432721 0 
-8.72007e-06 -0.000210238 0 0.000156073 0.000129496 0 -7.70692e-05 -0.000555049 0 
0.00036091 -0.000389728 0 0.000531628 0.000120564 0 -0.000285451 0.000435562 0 
0.000192719 -0.000494604 0 0.00041642 0.00039368 0 -0.000135943 0.000554637 0 
-0.000170665 -0.000610079 0 -0.000666304 0.000434981 0 -0.000758736 0.000479231 0 
-0.000470189 -0.000458901 0 0.000203433 -8.59809e-05 0 0.000101846 0.000170114 0 
-0.00035513 -0.00040726 0 0.000100184 -0.000165831 0 2.96286e-05 0.00081537 0 
0.000720946 0.000381836 0 -0.000539809 -0.000292001 0 0.00052211 -0.000182426 0 
-6.41339e-05 -0.000753908 0 0.000638039 -0.000299861 0 -0.000605136 -0.000230182 0 
-3.41638e-05 -0.000145561 0 -0.000104037 0.000172396 0 -0.000808575 -0.00042774 0 
-0.000807207 -0.000465052 0 -0.00080817 0.000429771 0 -0.000806589 0.000469738 0 
-9.50634e-05 -0.000178909 0 0.000247777 0.000445058 0 1.48293e-05 -0.000814201 0 
-4.11555e-05 0.000140955 0 0.000276104 -0.000536845 0 0.000765969 -0.000436638 0 
0.000780871 -0.000362769 0 0.000424176 -0.000642018 0 0.00053413 -0.000368009 0 
-0.000416333 4.17911e-05 0 -0.000133891 -6.23822e-05 0 4.2574e-05 0.000206312 0 
[...]
POINT_DATA 626
VECTORS displacement float
4.83383e-21 -1.68053e-18 -8.58556e-19
-1.15746e-19 -1.59961e-18 -8.66647e-19
1.2502e-18 -9.79017e-19 -8.19791e-19
1.36074e-18 -9.58092e-19 -7.72045e-19
1.4588e-18 -8.98334e-19 -7.8297e-19
1.36836e-18 6.44323e-19 -8.26877e-19
1.45002e-18 8.19578e-19 -8.33337e-19
1.3215e-18 7.64102e-19 -7.90279e-19
1.03408e-19 1.59021e-18 -8.41599e-19
1.37252e-20 1.58447e-18 -8.87801e-19
-1.37908e-18 8.38179e-19 -8.14139e-19
-1.39441e-18 8.09467e-19 -8.44223e-19
-1.45306e-18 -6.80134e-19 -8.90025e-19
-1.42487e-18 -6.78562e-19 -8.84809e-19
0 0 0
-7.28782e-21 -1.40178e-18 6.87109e-19
-1.38366e-19 -1.42975e-18 7.2062e-19
1.28637e-18 -8.13927e-19 1.03851e-18
1.05749e-18 -6.22114e-19 8.32874e-19
1.28514e-18 -7.06988e-19 1.04785e-18
1.33076e-18 8.37943e-19 8.71793e-19
1.2834e-18 6.47236e-19 8.36834e-19
1.50769e-18 8.67469e-19 7.736e-19
1.13441e-19 1.56376e-18 8.03693e-19
-8.12027e-20 1.80204e-18 8.49986e-19
-1.11826e-18 9.23335e-19 7.92655e-19
-1.60035e-18 8.08466e-19 7.95236e-19
-1.53408e-18 -8.32845e-19 6.81502e-19
-1.33926e-18 -8.41689e-19 6.33439e-19
0 0 0
-3.30386e-20 -1.42355e-18 -8.55883e-19
1.16974e-18 -9.40324e-19 -7.62051e-19
9.92055e-19 -1.00311e-18 -8.00887e-19
8.00732e-19 -1.16302e-18 -8.15297e-19
6.83341e-19 -1.22949e-18 -8.52204e-19
4.55058e-19 -1.41377e-18 -8.51291e-19
2.7053e-19 -1.63081e-18 -8.23754e-19
1.44337e-18 -8.77392e-19 -7.68598e-19
1.45471e-18 4.59384e-19 -8.31258e-19
1.35433e-18 3.08711e-19 -8.31831e-19
1.37441e-18 9.14712e-20 -8.04583e-19
1.50139e-18 -1.03554e-19 -7.79901e-19
1.58333e-18 -3.32191e-19 -7.70002e-19
1.46648e-18 -5.97511e-19 -7.71359e-19
1.34687e-18 6.8342e-19 -8.14336e-19
2.64879e-19 1.47666e-18 -8.37723e-19
4.86132e-19 1.35403e-18 -8.20282e-19
6.52916e-19 1.30676e-18 -8.17558e-19
9.14462e-19 1.08864e-18 -8.19687e-19
9.9295e-19 9.71746e-19 -8.21234e-19
1.1247e-18 9.15483e-19 -8.24655e-19
3.85543e-20 1.52533e-18 -8.49016e-19
-1.15569e-18 1.03985e-18 -8.13704e-19
-9.44882e-19 1.06858e-18 -8.36599e-19
-8.01094e-19 1.08626e-18 -8.38932e-19
-5.83104e-19 1.24796e-18 -8.674e-19
-3.4621e-19 1.39429e-18 -8.85779e-19
-1.00358e-19 1.57933e-18 -8.88514e-19
-1.21675e-18 7.4257e-19 -8.1006e-19
-1.39026e-18 -3.90564e-19 -8.77446e-19
-1.55313e-18 -2.92107e-19 -8.76728e-19
-1.50257e-18 -2.76623e-20 -8.72864e-19
-1.37657e-18 1.48055e-19 -8.64543e-19
-1.39157e-18 3.86441e-19 -8.5458e-19
-1.41228e-18 5.59532e-19 -8.27895e-19
-1.35455e-18 -6.64327e-19 -8.92841e-19
-2.38079e-19 -1.49993e-18 -8.723e-19
-4.02455e-19 -1.3453e-18 -8.75887e-19
-5.2714e-19 -1.22439e-18 -8.85305e-19
-7.67799e-19 -1.14892e-18 -9.10923e-19
-9.21804e-19 -1.00295e-18 -9.02564e-19
-1.25448e-18 -8.40038e-19 -9.16932e-19
0 0 0
0 0 0
0 0 0
0 0 0
0 0 0
0 0 0
-3.21127e-20 -1.41482e-18 6.90515e-19
9.96772e-19 -9.70699e-19 7.73048e-19
9.00307e-19 -9.91629e-19 7.04116e-19
8.31765e-19 -1.0883e-18 7.2402e-19
5.44554e-19 -1.29675e-18 7.76834e-19
3.77986e-19 -1.4459e-18 8.39833e-19
1.91105e-19 -1.31767e-18 6.94671e-19
1.17921e-18 -6.85114e-19 9.20476e-19
1.35539e-18 5.44954e-19 8.369e-19
1.47514e-18 3.07937e-19 8.68694e-19
1.4469e-18 6.8084e-20 9.21871e-19
1.29794e-18 -8.69819e-20 9.69905e-19
1.19639e-18 -3.37296e-19 8.12872e-19
1.29395e-18 -4.56627e-19 9.32054e-19
1.32062e-18 7.43567e-19 8.26507e-19
2.73414e-19 1.49434e-18 7.89204e-19
4.22628e-19 1.44013e-18 6.47189e-19
6.1399e-19 1.18895e-18 8.53429e-19
8.3973e-19 1.06688e-18 8.16558e-19
9.69586e-19 1.00924e-18 8.55257e-19
1.23252e-18 9.74876e-19 9.21725e-19
3.67924e-20 1.58392e-18 7.10839e-19
-1.04889e-18 9.42503e-19 7.72126e-19
-8.8272e-19 9.13168e-19 7.52508e-19
-7.84022e-19 1.11698e-18 7.2107e-19
-6.47466e-19 1.2559e-18 8.68508e-19
-4.40787e-19 1.34746e-18 8.39725e-19
-2.90684e-19 1.54912e-18 9.19958e-19
-1.30775e-18 8.26517e-19 7.84502e-19
-1.49443e-18 -4.94702e-19 7.21666e-19
-1.4354e-18 -2.75355e-19 8.25428e-19
-1.36759e-18 -6.78391e-20 6.17562e-19
-1.50551e-18 1.30317e-19 5.89897e-19
-1.49278e-18 3.33519e-19 7.48015e-19
-1.49048e-18 5.69174e-19 7.44374e-19
-1.42117e-18 -7.94385e-19 6.7763e-19
-3.25611e-19 -1.47246e-18 8.14972e-19
-4.20352e-19 -1.28321e-18 7.59628e-19
-6.85826e-19 -1.31004e-18 6.11068e-19
-9.08364e-19 -1.13897e-18 6.60694e-19
-1.02687e-18 -1.10375e-18 6.63829e-19
-1.12246e-18 -9.73349e-19 7.03854e-19
0 0 0
0 0 0
0 0 0
0 0 0
0 0 0
0 0 0
-1.22403e-19 -6.42616e-20 -3.79082e-19
-1.55446e-19 8.40166e-20 -3.57756e-19
-2.60297e-20 -1.7898e-19 -3.64473e-19
-3.37818e-20 1.58365e-19 -3.38311e-19
1.56928e-19 2.67217e-21 -3.44325e-19
1.04556e-19 1.30636e-19 -3.34638e-19
1.20656e-19 -1.26968e-19 -3.07037e-19
1.17782e-18 3.89204e-19 -8.18927e-19
1.33753e-18 -4.03004e-19 -8.01371e-19
3.06134e-19 -1.33742e-18 -8.3365e-19
3.19368e-19 1.2172e-18 -8.43336e-19
-1.01796e-18 -8.40908e-19 -9.09975e-19
-8.96326e-19 8.65067e-19 -8.56699e-19
-1.27841e-18 -1.49066e-19 -8.75536e-19
8.27463e-19 -9.80073e-19 -8.01175e-19
8.12079e-19 8.77188e-19 -8.05731e-19
-4.02126e-19 -1.07827e-18 -8.71418e-19
-3.44704e-19 1.20908e-18 -8.58805e-19
-1.13412e-18 2.5687e-19 -8.64383e-19
1.24224e-18 -5.30671e-20 -8.21585e-19
1.37987e-18 -6.66279e-19 -7.83273e-19
1.07875e-18 -5.82712e-19 -7.84397e-19
1.14979e-18 -3.34913e-19 -7.99058e-19
9.41727e-19 -4.38242e-19 -8.03314e-19
9.03045e-19 -2.5959e-19 -8.15954e-19
7.63576e-19 -3.03093e-19 -7.92111e-19
7.22946e-19 -2.01204e-19 -7.83363e-19
5.52336e-19 -2.78907e-19 -7.54019e-19
5.98821e-19 -4.19383e-19 -7.76804e-19
4.087e-19 -3.55861e-19 -7.46312e-19
4.35594e-19 -5.39598e-19 -7.95744e-19
3.08066e-19 -4.80367e-19 -7.15276e-19
3.44353e-19 -6.14427e-19 -7.86099e-19
1.94796e-19 -5.79458e-19 -7.43653e-19
2.20599e-19 -7.25411e-19 -8.02906e-19
4.52716e-20 -6.79481e-19 -7.50663e-19
9.64373e-20 -7.97874e-19 -8.05937e-19
-7.80742e-20 -7.87812e-19 -8.08837e-19
3.72325e-19 -7.43753e-19 -8.07129e-19
-1.1768e-19 -5.82626e-19 -7.60577e-19
-2.63798e-19 -7.04938e-19 -8.1142e-19
-2.27333e-19 -4.82204e-19 -7.50635e-19
-3.84809e-19 -6.25196e-19 -7.88145e-19
-3.73587e-19 -4.2966e-19 -7.35395e-19
-4.9774e-19 -5.90095e-19 -8.1128e-19
-4.96389e-19 -3.19291e-19 -7.94823e-19
-6.44915e-19 -4.69696e-19 -8.23449e-19
-6.92523e-19 -2.46297e-19 -8.09744e-19
-5.1351e-19 -6.72268e-19 -8.64334e-19
-5.39336e-19 -1.50567e-19 -7.49689e-19
-6.66469e-19 -8.91891e-20 -7.74269e-19
-5.16871e-19 3.65768e-21 -7.48252e-19
-6.9496e-19 8.14136e-20 -8.11617e-19
-5.06867e-19 1.51255e-19 -7.8501e-19
-7.59327e-19 2.4806e-19 -7.92619e-19
-5.66523e-19 3.20756e-19 -7.69512e-19
-7.1643e-19 4.4872e-19 -8.21193e-19
-5.95107e-19 4.94853e-19 -7.90194e-19
-4.64784e-19 4.06458e-19 -7.44527e-19
-4.03264e-19 5.6536e-19 -7.6269e-19
-3.16364e-19 5.0903e-19 -7.41217e-19
-2.72106e-19 6.96006e-19 -7.51601e-19
-1.57589e-19 5.54482e-19 -7.40191e-19
-1.21589e-19 7.37429e-19 -7.83705e-19
2.55432e-20 6.34392e-19 -7.56359e-19
2.42387e-20 7.7617e-19 -7.88557e-19
1.5714e-19 6.70043e-19 -7.75999e-19
1.56078e-19 5.11638e-19 -7.31658e-19
2.88036e-19 5.82995e-19 -7.72973e-19
2.72266e-19 5.14672e-19 -7.31058e-19
4.52985e-19 5.59306e-19 -7.81297e-19
4.06925e-19 3.52633e-19 -7.34861e-19
5.71525e-19 4.39165e-19 -7.5814e-19
5.65948e-19 2.76066e-19 -7.69947e-19
7.1947e-19 3.27102e-19 -7.94726e-19
3.15248e-19 8.16756e-19 -8.26694e-19
7.1817e-19 1.81549e-19 -7.73565e-19
-4.44802e-19 7.3328e-19 -8.06148e-19
5.04056e-19 -1.15594e-19 -7.03834e-19
8.95437e-19 -6.21939e-20 -7.91331e-19
-5.22016e-20 -9.11211e-19 -8.31698e-19
-8.67585e-19 -4.08824e-20 -8.45933e-19
-8.62363e-19 -3.55022e-19 -8.46191e-19
5.77303e-19 -6.19011e-19 -8.0996e-19
3.78663e-19 2.29298e-19 -6.85866e-19
7.38687e-19 5.59327e-19 -7.93101e-19
-7.61e-19 5.93693e-19 -8.20852e-19
-8.09602e-19 4.71998e-19 -8.41972e-19
7.73449e-19 3.02846e-19 -7.75627e-19
-1.72569e-19 8.72192e-19 -8.06322e-19
2.99647e-20 1.00218e-18 -8.21105e-19
-2.35008e-19 -3.44498e-19 -6.8534e-19
-8.69062e-19 -5.19325e-19 -8.64705e-19
-1.05885e-18 -4.41669e-19 -8.70658e-19
9.97205e-19 -6.5835e-19 -7.7215e-19
1.36516e-19 -1.02631e-18 -8.21648e-19
-8.85961e-20 -1.11504e-18 -8.47054e-19
1.41479e-19 -3.54256e-19 -6.68801e-19
-3.93205e-19 7.34637e-20 -6.71127e-19
-2.66463e-19 3.13637e-19 -6.45218e-19
1.36008e-19 3.88243e-19 -6.51814e-19
1.26189e-18 5.58821e-19 -7.97761e-19
1.00469e-18 5.19941e-19 -8.22492e-19
-1.23695e-18 -6.73946e-19 -8.62442e-19
-1.10189e-18 7.80365e-19 -8.01984e-19
1.44429e-19 1.23657e-18 -8.49432e-19
1.13729e-19 -1.34889e-18 -8.43378e-19
-9.5579e-19 6.66335e-19 -8.29049e-19
-1.15047e-18 6.4124e-19 -8.27343e-19
-2.02749e-19 1.16462e-18 -8.42765e-19
5.88413e-22 1.08005e-18 -8.18177e-19
1.06536e-18 6.84525e-19 -8.31778e-19
8.51639e-19 1.40436e-19 -7.85817e-19
1.00513e-18 1.99731e-19 -8.00959e-19
6.9448e-19 4.17385e-20 -7.34172e-19
-1.35663e-18 -4.98637e-19 -8.67753e-19
-1.15337e-18 6.85393e-19 -8.42451e-19
-8.7815e-20 -1.40615e-18 -8.80551e-19
-2.46119e-20 1.4389e-18 -8.77452e-19
-1.32419e-19 1.2995e-18 -8.57214e-19
1.31321e-19 9.86539e-19 -8.14382e-19
-1.96079e-19 -1.34229e-18 -8.69827e-19
-1.27439e-18 -3.9978e-19 -8.62583e-19
-2.3587e-19 -9.91768e-19 -8.69372e-19
-8.02065e-19 7.78469e-19 -8.23403e-19
8.19267e-19 6.00702e-19 -8.21001e-19
9.23783e-19 1.21919e-20 -7.99921e-19
-1.04314e-18 -2.62164e-19 -8.7088e-19
-1.51525e-21 4.30307e-19 -6.74717e-19
-1.39531e-19 4.21918e-19 -6.37282e-19
-4.06086e-19 2.37896e-19 -7.02043e-19
1.3136e-18 -2.59118e-19 -7.99235e-19
-3.21466e-19 1.02939e-18 -8.42559e-19
-4.82976e-19 9.76418e-19 -8.6064e-19
-1.0301e-18 -6.29318e-19 -8.71431e-19
-7.93423e-19 9.8427e-19 -8.43247e-19
-6.19576e-19 8.06408e-19 -8.39362e-19
2.52429e-19 3.25046e-19 -6.48028e-19
-3.94827e-19 -7.14799e-20 -6.69379e-19
-3.48536e-19 -2.61953e-19 -7.03814e-19
9.35693e-20 1.39579e-18 -8.5368e-19
-1.36284e-19 -4.18502e-19 -6.72254e-19
3.4963e-20 -5.21226e-19 -7.00421e-19
2.70041e-19 -3.1466e-19 -6.59543e-19
4.11259e-19 -2.33234e-19 -6.64582e-19
3.50647e-19 -9.05834e-20 -6.1854e-19
5.71838e-19 1.5491e-20 -7.02786e-19
3.5572e-19 4.94041e-20 -5.71979e-19
2.66583e-19 -1.53213e-19 -5.06206e-19
1.15564e-18 2.26439e-19 -7.85735e-19
-1.23277e-18 8.15077e-19 -8.30707e-19
1.35037e-19 -1.13545e-18 -8.32343e-19
-1.26655e-18 1.66664e-20 -8.50771e-19
-9.72157e-19 1.29879e-19 -8.59384e-19
-1.00151e-18 3.3345e-19 -8.32115e-19
-1.16278e-18 4.47033e-19 -8.28273e-19
1.28848e-18 7.22032e-19 -8.30726e-19
-1.03708e-18 -6.11465e-20 -8.55638e-19
8.4941e-20 -1.5566e-18 -8.53935e-19
3.81608e-20 -3.20941e-19 -5.61679e-19
-1.17481e-18 -6.36407e-19 -8.91356e-19
9.96773e-19 -8.438e-19 -8.08763e-19
6.58261e-19 9.9554e-19 -7.9922e-19
6.29292e-19 8.50868e-19 -8.16671e-19
4.43214e-19 9.84826e-19 -8.10833e-19
4.66415e-19 1.21197e-18 -8.15175e-19
7.03867e-19 -1.06946e-18 -8.21937e-19
6.8148e-19 -8.79647e-19 -8.19437e-19
4.84321e-19 -1.20172e-18 -8.48946e-19
2.84063e-19 -1.0825e-18 -8.33668e-19
-5.54112e-19 -1.03728e-18 -8.67363e-19
-8.36116e-19 -9.66876e-19 -8.95676e-19
-7.7919e-19 -7.46203e-19 -8.76928e-19
4.83144e-19 -9.0775e-19 -8.54719e-19
-6.54791e-19 -9.00275e-19 -8.64312e-19
-4.59779e-19 -9.51193e-19 -8.66026e-19
2.45529e-19 1.40154e-19 -5.12316e-19
4.64143e-19 8.14307e-19 -8.06992e-19
-2.47334e-19 2.63695e-22 -5.40512e-19
-2.99836e-19 -9.11889e-19 -8.50966e-19
-7.89825e-19 1.19556e-19 -8.27233e-19
9.48361e-19 8.30563e-19 -7.95246e-19
1.14611e-18 -1.30772e-19 -8.02064e-19
8.06309e-19 -5.45389e-19 -7.86964e-19
5.35772e-19 1.52374e-19 -7.23585e-19
7.89182e-19 -6.39429e-19 -8.01843e-19
1.10455e-20 3.51035e-19 -5.77602e-19
-2.00272e-19 -1.90447e-19 -5.68055e-19
1.71641e-19 8.63779e-19 -8.19268e-19
-5.39947e-19 6.40661e-19 -7.8836e-19
-9.52139e-19 -1.9272e-19 -8.36593e-19
5.08943e-19 -6.4857e-19 -8.35308e-19
-2.67902e-19 8.18359e-19 -7.97477e-19
-7.43458e-19 -6.501e-19 -8.5026e-19
2.8648e-19 -8.8503e-19 -8.30962e-19
2.81756e-19 8.93441e-19 -8.20637e-19
1.05167e-18 -7.60601e-19 -7.89102e-19
1.20431e-18 -8.24049e-19 -7.92883e-19
8.21853e-19 7.37714e-19 -7.93898e-19
-2.99764e-19 1.47946e-19 -5.60411e-19
-1.21884e-19 -2.21457e-19 -5.2939e-19
6.27191e-19 6.85004e-19 -7.88184e-19
-1.24222e-19 2.36985e-19 -5.08829e-19
-3.2618e-20 -1.28398e-18 -8.46008e-19
-1.16432e-18 -6.12317e-19 -8.89925e-19
9.21937e-19 4.52856e-19 -7.97378e-19
-7.28493e-19 3.21357e-19 -8.27832e-19
1.33378e-19 1.25502e-18 -8.3227e-19
-1.02207e-18 5.4105e-19 -8.20414e-19
9.79951e-19 3.71533e-19 -8.11597e-19
3.43669e-20 1.72897e-19 -3.83439e-19
1.46118e-19 -2.28578e-19 -5.2517e-19
1.28292e-18 6.00148e-19 -8.40114e-19
1.37689e-18 7.65685e-19 -8.49795e-19
1.33159e-18 -7.66879e-19 -7.95076e-19
1.34693e-18 -8.88554e-19 -7.89099e-19
1.30418e-19 2.75841e-19 -5.39847e-19
-4.11427e-19 -7.54451e-19 -8.50234e-19
5.67436e-20 1.25194e-18 -8.59069e-19
4.67141e-20 -1.77214e-19 -3.58306e-19
-4.07108e-19 8.38555e-19 -8.23188e-19
-1.257e-18 7.47405e-19 -8.15057e-19
-1.15854e-18 6.01823e-19 -8.33483e-19
-6.30355e-19 1.0817e-18 -8.29768e-19
-7.6053e-19 6.15594e-19 -8.15477e-19
6.73393e-19 -7.64428e-20 -7.60696e-19
1.70977e-19 6.5638e-20 -3.69926e-19
-6.39202e-20 -3.34909e-19 -5.70635e-19
-2.17603e-19 1.90667e-19 -4.99458e-19
-1.12978e-18 -3.25393e-19 -8.48501e-19
-2.06398e-19 -1.11086e-18 -8.7151e-19
4.42594e-20 1.45704e-18 -8.58182e-19
1.73385e-19 -6.43844e-20 -3.36141e-19
2.95695e-19 -4.52424e-20 -4.88714e-19
-2.62714e-19 -1.28911e-19 -5.97101e-19
3.058e-20 -1.38281e-18 -8.51896e-19
-1.38902e-18 -6.8331e-19 -8.65266e-19
1.1794e-18 -8.19071e-19 -7.98223e-19
-9.197e-20 -1.24307e-19 -3.74332e-19
1.14328e-18 7.52666e-19 -8.28308e-19
1.14485e-18 9.26764e-20 -8.20137e-19
1.05826e-18 2.83563e-19 -8.14244e-19
-7.95897e-20 2.83419e-19 -5.21095e-19
2.64119e-19 1.04636e-18 -8.26769e-19
5.11278e-19 -7.83528e-19 -8.23535e-19
-1.01538e-19 1.12004e-19 -3.34116e-19
-6.54446e-19 7.32985e-19 -8.10104e-19
-2.55851e-19 1.27309e-18 -8.68664e-19
7.97942e-19 -7.46343e-19 -7.95318e-19
-4.63134e-19 -7.90325e-19 -8.63564e-19
-1.66931e-19 -8.08143e-20 3.29232e-19
-1.6264e-19 4.82435e-20 3.39047e-19
-6.53174e-20 -1.638e-19 2.22131e-19
-3.22955e-20 1.57075e-19 3.85476e-19
1.95541e-19 -2.1384e-20 2.38722e-19
1.02861e-19 1.26191e-19 2.67538e-19
9.07117e-20 -1.24451e-19 2.34547e-19
1.24234e-18 4.31989e-19 8.09552e-19
1.01939e-18 -4.3454e-19 7.75693e-19
1.82728e-19 -1.23311e-18 6.17495e-19
2.39284e-19 1.33731e-18 7.06041e-19
-9.55256e-19 -8.35856e-19 7.01304e-19
-9.4376e-19 9.18391e-19 7.09915e-19
-1.28937e-18 -1.59943e-19 7.92909e-19
7.38944e-19 -9.6333e-19 7.67505e-19
7.91213e-19 9.07324e-19 8.6235e-19
-4.44637e-19 -1.22713e-18 6.51931e-19
-4.03189e-19 1.22263e-18 7.45281e-19
-1.31034e-18 2.72293e-19 7.35694e-19
1.22168e-18 4.03634e-20 8.89041e-19
1.12822e-18 -5.92526e-19 9.72644e-19
9.03913e-19 -4.127e-19 8.74021e-19
9.95442e-19 -3.1314e-19 9.24656e-19
8.78503e-19 -4.35306e-19 7.17631e-19
8.07457e-19 -2.292e-19 7.78438e-19
7.24321e-19 -3.63842e-19 7.5937e-19
6.93038e-19 -1.81204e-19 6.76936e-19
5.66724e-19 -3.01545e-19 6.28386e-19
6.08808e-19 -4.60917e-19 8.55349e-19
4.26249e-19 -4.02073e-19 6.26762e-19
3.85332e-19 -5.2101e-19 8.11574e-19
2.57685e-19 -4.23046e-19 7.73998e-19
2.63669e-19 -5.92469e-19 8.64864e-19
1.40201e-19 -4.96887e-19 6.48401e-19
1.56434e-19 -7.48295e-19 6.86759e-19
7.9249e-22 -6.60559e-19 7.25812e-19
2.95649e-20 -8.76891e-19 7.27846e-19
-1.43339e-19 -7.92147e-19 8.32164e-19
3.07275e-19 -7.4569e-19 8.36902e-19
-1.32028e-19 -5.71507e-19 6.27422e-19
-2.88505e-19 -6.7855e-19 8.30989e-19
-2.67835e-19 -5.30056e-19 6.64894e-19
-4.38062e-19 -5.93265e-19 7.37759e-19
-4.1783e-19 -4.03815e-19 5.11177e-19
-5.54289e-19 -5.42446e-19 6.93737e-19
-5.25121e-19 -3.61747e-19 7.93685e-19
-6.50689e-19 -4.251e-19 7.3506e-19
-7.09376e-19 -2.86426e-19 6.88427e-19
-5.24256e-19 -6.78673e-19 6.91761e-19
-5.84445e-19 -2.04842e-19 5.73002e-19
-6.78259e-19 -1.20014e-19 6.00628e-19
-5.39218e-19 -4.76799e-20 8.08826e-19
-7.51685e-19 5.88765e-20 6.47703e-19
-6.05319e-19 1.32813e-19 6.95851e-19
-8.10747e-19 2.28818e-19 7.02281e-19
-5.8604e-19 2.66446e-19 7.48237e-19
-7.50048e-19 3.44489e-19 9.2788e-19
-5.91131e-19 4.53673e-19 6.25568e-19
-4.13231e-19 3.82089e-19 7.03954e-19
-4.06958e-19 5.8053e-19 5.60589e-19
-2.78331e-19 4.95508e-19 5.54101e-19
-3.03841e-19 6.26018e-19 5.66744e-19
-1.57857e-19 5.48182e-19 6.82378e-19
-1.69646e-19 7.8658e-19 8.0127e-19
-2.30583e-20 6.69639e-19 7.24192e-19
-3.92258e-20 8.26782e-19 7.59251e-19
1.25701e-19 7.63524e-19 7.08758e-19
1.53283e-19 5.46748e-19 6.32847e-19
3.03531e-19 6.5192e-19 7.50357e-19
3.05465e-19 4.61249e-19 7.74e-19
3.89928e-19 5.01096e-19 7.40396e-19
4.21605e-19 4.30713e-19 7.20284e-19
5.44742e-19 4.37571e-19 6.32548e-19
5.56081e-19 3.34292e-19 8.97044e-19
7.28987e-19 4.25052e-19 7.70686e-19
2.56532e-19 8.66969e-19 6.86548e-19
7.09071e-19 2.68323e-19 7.21625e-19
-4.34413e-19 7.91116e-19 7.82361e-19
5.26497e-19 -1.4402e-19 7.51035e-19
8.60535e-19 -4.70137e-20 7.58205e-19
-9.26627e-20 -8.86502e-19 8.47037e-19
-8.64493e-19 -2.20331e-20 6.77207e-19
-8.31285e-19 -3.87909e-19 6.52501e-19
5.73332e-19 -6.22416e-19 8.4031e-19
4.02193e-19 2.39028e-19 7.34071e-19
7.73028e-19 5.7211e-19 8.03794e-19
-7.33946e-19 5.74703e-19 8.34683e-19
-8.86066e-19 4.64434e-19 9.27375e-19
9.1216e-19 3.30988e-19 6.85569e-19
-1.62683e-19 9.98709e-19 6.85194e-19
-3.46191e-20 1.00646e-18 7.26452e-19
-2.74164e-19 -3.26068e-19 6.03917e-19
-7.85372e-19 -5.4306e-19 6.00296e-19
-1.08477e-18 -4.05913e-19 7.83384e-19
9.04089e-19 -6.97689e-19 7.53374e-19
3.86224e-20 -9.98544e-19 7.94298e-19
-1.57995e-19 -1.11222e-18 8.19364e-19
1.17815e-19 -3.82844e-19 6.48342e-19
-4.23224e-19 5.52961e-20 7.1141e-19
-2.63393e-19 2.70512e-19 5.35728e-19
1.62478e-19 4.07615e-19 6.13326e-19
1.26629e-18 5.91429e-19 7.98084e-19
1.027e-18 5.40312e-19 8.97103e-19
-1.06755e-18 -7.60183e-19 6.68372e-19
-1.07923e-18 7.66671e-19 7.33311e-19
7.08051e-20 1.42229e-18 7.33262e-19
4.81489e-21 -1.42106e-18 6.71591e-19
-9.50788e-19 7.0137e-19 8.12886e-19
-1.20346e-18 6.68046e-19 7.7621e-19
-1.70887e-19 1.13945e-18 8.70586e-19
-3.12894e-20 1.12975e-18 8.37507e-19
1.21799e-18 7.55307e-19 8.48271e-19
9.08376e-19 1.87122e-19 8.38839e-19
1.07959e-18 2.47561e-19 8.18562e-19
6.6449e-19 8.46429e-20 6.54341e-19
-1.40625e-18 -5.91729e-19 5.38337e-19
-1.24923e-18 7.06797e-19 8.19643e-19
-1.46657e-19 -1.40421e-18 7.78184e-19
-1.5346e-19 1.57232e-18 7.36781e-19
-1.46091e-19 1.30483e-18 8.74835e-19
1.43031e-19 1.0007e-18 6.12491e-19
-2.22084e-19 -1.41716e-18 6.41693e-19
-1.25502e-18 -5.73079e-19 6.59774e-19
-2.82445e-19 -1.02039e-18 7.27239e-19
-7.093e-19 8.36773e-19 8.07714e-19
9.81305e-19 6.62534e-19 8.82614e-19
9.61896e-19 5.53629e-21 8.0174e-19
-1.00898e-18 -2.89411e-19 8.68575e-19
2.986e-20 4.62765e-19 6.01184e-19
-1.06534e-19 3.60413e-19 5.78129e-19
-3.96724e-19 1.8919e-19 5.54174e-19
1.18458e-18 -1.99991e-19 7.88345e-19
-3.21668e-19 9.89053e-19 8.40381e-19
-5.03081e-19 1.12131e-18 7.94461e-19
-1.09031e-18 -6.20847e-19 7.03597e-19
-7.83397e-19 9.83609e-19 7.86573e-19
-6.20408e-19 8.68285e-19 8.76116e-19
2.88366e-19 3.01171e-19 5.17912e-19
-3.89153e-19 -7.87739e-20 6.52131e-19
-3.94177e-19 -2.46771e-19 7.12039e-19
1.16493e-19 1.5928e-18 8.03994e-19
-1.64705e-19 -3.88568e-19 5.95344e-19
-2.13672e-20 -4.52566e-19 5.50793e-19
2.54617e-19 -3.09624e-19 6.77563e-19
3.75594e-19 -2.17844e-19 5.5816e-19
4.03972e-19 -9.45626e-20 5.92676e-19
5.76034e-19 -1.61433e-20 7.10605e-19
3.46434e-19 6.12742e-20 6.44103e-19
2.34237e-19 -1.52512e-19 5.11745e-19
1.29069e-18 2.33299e-19 7.81152e-19
-1.31389e-18 8.63554e-19 6.98224e-19
2.36497e-20 -1.29602e-18 7.07617e-19
-1.28234e-18 7.47427e-20 7.73078e-19
-1.06292e-18 1.04537e-19 8.051e-19
-1.10857e-18 3.02068e-19 7.56916e-19
-1.28919e-18 4.52842e-19 6.53412e-19
1.26637e-18 7.47767e-19 8.83522e-19