# vtk DataFile Version 3.0
vtk output at time 80
ASCII
DATASET UNSTRUCTURED_GRID
POINTS 626 float
-3.68058e-05 0.000978749 0 3.68058e-05 0.000978749 0 -0.000829194 0.00052125 0 
-0.0008235 0.0005 0 -0.000866 0.0004575 0 -0.000866 -0.0004575 0 
-0.0008235 -0.0005 0 -0.000829194 -0.00052125 0 -3.68058e-05 -0.000978749 0 
3.68058e-05 -0.000978749 0 0.000829194 -0.00052125 0 0.000866 -0.0004575 0 
0.000866 0.0004575 0 0.000829194 0.00052125 0 8.5e-05 0 0 
-3.68058e-05 0.000978749 -0.001 3.68058e-05 0.000978749 -0.001 -0.000829194 0.00052125 -0.001 
-0.0008235 0.0005 -0.001 -0.000866 0.0004575 -0.001 -0.000866 -0.0004575 -0.001 
-0.0008235 -0.0005 -0.001 -0.000829194 -0.00052125 -0.001 -3.68058e-05 -0.000978749 -0.001 
3.68058e-05 -0.000978749 -0.001 0.000829194 -0.00052125 -0.001 0.000866 -0.0004575 -0.001 
0.000866 0.0004575 -0.001 0.000829194 0.00052125 -0.001 8.5e-05 0 -0.001 
8.46223e-17 0.0009575 0 -0.000715996 0.000586607 0 -0.000602797 0.000651965 0 
-0.000489599 0.000717321 0 -0.000376401 0.000782678 0 -0.000263202 0.000848036 0 
-0.000150004 0.000913393 0 -0.000835948 0.000469948 0 -0.000866 -0.000326786 0 
-0.000866 -0.000196071 0 -0.000866 -6.53571e-05 0 -0.000866 6.53571e-05 0 
-0.000866 0.000196071 0 -0.000866 0.000326786 0 -0.000835948 -0.000469948 0 
-0.000150004 -0.000913393 0 -0.000263202 -0.000848036 0 -0.000376401 -0.000782678 0 
-0.000489599 -0.000717321 0 -0.000602797 -0.000651965 0 -0.000715996 -0.000586607 0 
8.47648e-17 -0.0009575 0 0.000715996 -0.000586607 0 0.000602797 -0.000651965 0 
0.000489599 -0.000717321 0 0.000376401 -0.000782678 0 0.000263202 -0.000848036 0 
0.000150004 -0.000913393 0 0.000829194 -0.00047875 0 0.000866 0.000326786 0 
0.000866 0.000196071 0 0.000866 6.53571e-05 0 0.000866 -6.53571e-05 0 
0.000866 -0.000196071 0 0.000866 -0.000326786 0 0.000829194 0.00047875 0 
0.000150004 0.000913393 0 0.000263202 0.000848036 0 0.000376401 0.000782678 0 
0.000489599 0.000717321 0 0.000602797 0.000651965 0 0.000715996 0.000586607 0 
5.29966e-05 6.64557e-05 0 -1.89143e-05 8.28689e-05 0 -7.65824e-05 3.68801e-05 0 
-7.65824e-05 -3.68801e-05 0 -1.89143e-05 -8.28689e-05 0 5.29966e-05 -6.64557e-05 0 
8.46223e-17 0.0009575 -0.001 -0.000715996 0.000586607 -0.001 -0.000602797 0.000651965 -0.001 
-0.000489599 0.000717321 -0.001 -0.000376401 0.000782678 -0.001 -0.000263202 0.000848036 -0.001 
-0.000150004 0.000913393 -0.001 -0.000835948 0.000469948 -0.001 -0.000866 -0.000326786 -0.001 
-0.000866 -0.000196071 -0.001 -0.000866 -6.53571e-05 -0.001 -0.000866 6.53571e-05 -0.001 
-0.000866 0.000196071 -0.001 -0.000866 0.000326786 -0.001 -0.000835948 -0.000469948 -0.001 
-0.000150004 -0.000913393 -0.001 -0.000263202 -0.000848036 -0.001 -0.000376401 -0.000782678 -0.001 
-0.000489599 -0.000717321 -0.001 -0.000602797 -0.000651965 -0.001 -0.000715996 -0.000586607 -0.001 
8.47648e-17 -0.0009575 -0.001 0.000715996 -0.000586607 -0.001 0.000602797 -0.000651965 -0.001 
0.000489599 -0.000717321 -0.001 0.000376401 -0.000782678 -0.001 0.000263202 -0.000848036 -0.001 
0.000150004 -0.000913393 -0.001 0.000829194 -0.00047875 -0.001 0.000866 0.000326786 -0.001 
0.000866 0.000196071 -0.001 0.000866 6.53571e-05 -0.001 0.000866 -6.53571e-05 -0.001 
0.000866 -0.000196071 -0.001 0.000866 -0.000326786 -0.001 0.000829194 0.00047875 -0.001 
0.000150004 0.000913393 -0.001 0.000263202 0.000848036 -0.001 0.000376401 0.000782678 -0.001 
0.000489599 0.000717321 -0.001 0.000602797 0.000651965 -0.001 0.000715996 0.000586607 -0.001 
5.29966e-05 6.64557e-05 -0.001 -1.89143e-05 8.28689e-05 -0.001 -7.65824e-05 3.68801e-05 -0.001 
-7.65824e-05 -3.68801e-05 -0.001 -1.89143e-05 -8.28689e-05 -0.001 5.29966e-05 -6.64557e-05 -0.001 
0.000131234 6.38474e-05 0 0.00012964 -6.2443e-05 0 3.13827e-05 0.0001394 0 
3.12554e-05 -0.000136939 0 -0.000140461 8.25467e-19 0 -8.90565e-05 -0.000102707 0 
-9.04142e-05 0.000102872 0 -0.000765769 -0.00025965 0 -0.000756873 0.000262774 0 
-0.00015609 0.000787505 0 -0.000155807 -0.00079355 0 0.000605069 0.000528035 0 
0.000608694 -0.00052497 0 0.000744069 0.000116929 0 -0.000494418 0.000596218 0 
-0.000483866 -0.000584648 0 0.000269496 0.000702219 0 0.000263201 -0.000717324 0 
0.000754429 -0.000127825 0 -0.000748858 5.84659e-07 0 -0.000747838 0.000373886 0 
-0.0006542 0.000324842 0 -0.000645137 0.000210123 0 -0.000550884 0.000274171 0 
-0.000538857 0.000163195 0 -0.00045062 0.000224461 0 -0.000438393 0.000123907 0 
-0.000354088 0.000181668 0 -0.000363908 0.000282171 0 -0.000270361 0.000239477 0 
-0.000279138 0.000337653 0 -0.000188888 0.000294791 0 -0.000196448 0.000393271 0 
-0.000104767 0.000348259 0 -0.000113332 0.000449012 0 -2.01066e-05 0.000403223 0 
-2.89189e-05 0.000507105 0 6.9524e-05 0.000461596 0 -0.000213644 0.000490203 0 
7.33757e-05 0.000357726 0 0.000163331 0.00041299 0 0.000163359 0.000313022 0 
0.000248077 0.000366368 0 0.000250914 0.000265758 0 0.000335709 0.000322266 0 
0.000340555 0.000218148 0 0.000427299 0.000276717 0 0.000431508 0.000173093 0 
0.000328731 0.000425633 0 0.00034586 0.000114823 0 0.000435362 7.05241e-05 0 
0.000350892 1.5455e-05 0 0.000441547 -3.11896e-05 0 0.000353547 -8.47783e-05 0 
0.000445767 -0.000132964 0 0.000356135 -0.000186358 0 0.000449094 -0.000234674 0 
0.000359978 -0.000287876 0 0.00026856 -0.000240545 0 0.000271895 -0.000341045 0 
0.000181792 -0.00029305 0 0.00018533 -0.000392851 0 9.75701e-05 -0.00034483 0 
9.98764e-05 -0.000444884 0 8.75116e-06 -0.000396343 0 1.20916e-05 -0.000500496 0 
-7.83929e-05 -0.000449843 0 -8.1471e-05 -0.000347249 0 -0.000171566 -0.000403733 0 
-0.000169889 -0.000298891 0 -0.000259867 -0.000354132 0 -0.000257696 -0.000249137 0 
-0.00034313 -0.000299896 0 -0.000344514 -0.000199127 0 -0.000434309 -0.000250039 0 
-0.000169832 -0.000505815 0 -0.000435227 -0.000146227 0 0.000280331 -0.000442424 0 
-0.000340889 8.76793e-05 0 -0.000515252 4.06198e-05 0 6.50491e-05 0.000568253 0 
0.00053278 1.74743e-05 0 0.000522071 0.000229831 0 -0.00037162 0.000391659 0 
-0.000255272 -0.000150439 0 -0.000442893 -0.000350705 0 0.000450067 -0.000332559 0 
0.000545175 -0.000276306 0 -0.000527797 -0.000197598 0 0.000105306 -0.000551033 0 
1.45836e-05 -0.000609147 0 0.00017145 0.000214453 0 0.000515525 0.000341711 0 
0.000636086 0.000290368 0 -0.000558657 0.000404468 0 -4.01232e-05 0.000616718 0 
6.60192e-05 0.000696422 0 -0.000101806 0.0002546 0 0.000271142 -3.88908e-05 0 
0.000179455 -0.00018534 0 -8.79553e-05 -0.000254307 0 -0.000749267 -0.000373451 0 
-0.000655941 -0.000323397 0 0.000709746 0.000466718 0 0.000698426 -0.000473086 0 
-5.25801e-05 -0.00084886 0 -4.93005e-05 0.000848038 0 0.000617396 -0.000413362 0 
0.000702056 -0.000369817 0 0.000131459 -0.000679171 0 2.48171e-05 -0.000715924 0 
-0.000664217 -0.00042729 0 -0.000528828 -8.80444e-05 0 -0.000611101 -0.000136672 0 
-0.000426972 -4.45841e-05 0 0.000800669 0.000378216 0 0.000821144 -0.000415062 0 
7.2799e-05 0.00088254 0 6.81831e-05 -0.00087503 0 0.000104963 -0.000788946 0 
-7.40696e-05 -0.000660054 0 0.000126061 0.000809943 0 0.000764361 0.000295682 0 
0.000166862 0.000630623 0 0.000516462 -0.00046707 0 -0.000563585 -0.000389606 0 
-0.000622598 -1.40238e-05 0 0.000629891 0.000171529 0 2.5614e-06 -0.000299794 0 
8.6901e-05 -0.00024329 0 0.000272045 -0.000136982 0 -0.00075148 0.000138321 0 
0.000209366 -0.000599589 0 0.000324913 -0.000630055 0 0.000614044 0.00041245 0 
0.00049651 -0.000573327 0 0.000394822 -0.000507321 0 -0.000173714 -0.000206698 0 
0.000264897 5.63722e-05 0 0.000247997 0.000152811 0 -4.63327e-05 -0.000920208 0 
9.18688e-05 0.000258626 0 -5.54111e-06 0.000290558 0 -0.000184219 0.000201484 0 
-0.000263559 0.000142267 0 -0.000256427 5.13624e-05 0 -0.000336894 -2.06179e-06 0 
-0.000228499 -4.2388e-05 0 -0.00017589 0.000106626 0 -0.000769947 -0.000133367 0 
0.000767591 -0.000500293 0 -5.05874e-05 0.000737978 0 0.000754456 -3.51771e-06 0 
0.00064691 -6.15298e-05 0 0.000630483 -0.00018134 0 0.000749187 -0.000265543 0 
-0.000760805 -0.000462521 0 0.000638155 6.09315e-05 0 -4.46661e-05 0.000922995 0 
-2.37945e-05 0.000207237 0 0.000776979 0.000500181 0 -0.000605691 0.000527596 0 
-0.000377914 -0.000653727 0 -0.000372325 -0.000526022 0 -0.000275829 -0.000589621 0 
-0.000254285 -0.000710579 0 -0.000379307 0.000656222 0 -0.000379818 0.00052718 0 
-0.000266817 0.000721555 0 -0.000150544 0.000668174 0 0.000381963 0.00065079 0 
0.000493113 0.000590432 0 0.000505439 0.000463708 0 -0.000269094 0.000596608 0 
0.000385815 0.000532045 0 0.000283599 0.0005899 0 -0.000176405 -0.000108505 0 
-0.000278769 -0.000475415 0 0.000185395 2.33014e-06 0 0.000186773 0.000517571 0 
0.000540032 -8.68444e-05 0 -0.000600694 -0.000514877 0 -0.00063703 8.98033e-05 0 
-0.000459677 0.000335729 0 -0.000338836 -0.000100751 0 -0.000457327 0.000432721 0 
-8.72007e-06 -0.000210238 0 0.000156073 0.000129496 0 -7.70692e-05 -0.000555049 0 
0.00036091 -0.000389728 0 0.000531628 0.000120564 0 -0.000285451 0.000435562 0 
0.000192719 -0.000494604 0 0.00041642 0.00039368 0 -0.000135943 0.000554637 0 
-0.000170665 -0.000610079 0 -0.000666304 0.000434981 0 -0.000758736 0.000479231 0 
-0.000470189 -0.000458901 0 0.000203433 -8.59809e-05 0 0.000101846 0.000170114 0 
-0.00035513 -0.00040726 0 0.000100184 -0.000165831 0 2.96286e-05 0.00081537 0 
0.000720946 0.000381836 0 -0.000539809 -0.000292001 0 0.00052211 -0.000182426 0 
-6.41339e-05 -0.000753908 0 0.000638039 -0.000299861 0 -0.000605136 -0.000230182 0 
-3.41638e-05 -0.000145561 0 -0.000104037 0.000172396 0 -0.000808575 -0.00042774 0 
-0.000807207 -0.000465052 0 -0.00080817 0.000429771 0 -0.000806589 0.000469738 0 
-9.50634e-05 -0.000178909 0 0.000247777 0.000445058 0 1.48293e-05 -0.000814201 0 
-4.11555e-05 0.000140955 0 0.000276104 -0.000536845 0 0.000765969 -0.000436638 0 
0.000780871 -0.000362769 0 0.000424176 -0.000642018 0 0.00053413 -0.000368009 0 
-0.000416333 4.17911e-05 0 -0.000133891 -6.23822e-05 0 4.2574e-05 0.000206312 0 
[...]
POINT_DATA 626
VECTORS displacement float
-1.74037e-06 3.08999e-05 1.80215e-05
1.73207e-06 3.09189e-05 1.80665e-05
-2.59407e-05 1.69625e-05 1.80534e-05
-2.57956e-05 1.60045e-05 1.80181e-05
-2.76716e-05 1.39486e-05 1.80355e-05
-2.76645e-05 -1.39948e-05 1.80609e-05
-2.57668e-05 -1.60427e-05 1.80722e-05
-2.59369e-05 -1.69805e-05 1.81332e-05
-1.67396e-06 -3.09036e-05 1.80179e-05
1.75186e-06 -3.09051e-05 1.80682e-05
2.58982e-05 -1.69503e-05 1.801e-05
2.76679e-05 -1.39126e-05 1.80098e-05
2.76235e-05 1.39652e-05 1.8058e-05
2.58696e-05 1.69626e-05 1.80125e-05
0 0 0
-1.74037e-06 3.08999e-05 -1.80215e-05
1.73207e-06 3.09189e-05 -1.80665e-05
-2.59407e-05 1.69625e-05 -1.80534e-05
-2.57956e-05 1.60045e-05 -1.80181e-05
-2.76716e-05 1.39486e-05 -1.80355e-05
-2.76645e-05 -1.39948e-05 -1.80609e-05
-2.57668e-05 -1.60427e-05 -1.80722e-05
-2.59369e-05 -1.69805e-05 -1.81332e-05
-1.67396e-06 -3.09036e-05 -1.80179e-05
1.75186e-06 -3.09051e-05 -1.80682e-05
2.58982e-05 -1.69503e-05 -1.801e-05
2.76679e-05 -1.39126e-05 -1.80098e-05
2.76235e-05 1.39652e-05 -1.8058e-05
2.58696e-05 1.69626e-05 -1.80125e-05
0 0 0
2.48151e-08 3.01013e-05 1.80007e-05
-2.11047e-05 1.86793e-05 1.75175e-05
-1.72037e-05 1.97996e-05 1.68903e-05
-1.39835e-05 2.10185e-05 1.65253e-05
-1.11877e-05 2.26267e-05 1.65192e-05
-8.50892e-06 2.47908e-05 1.68708e-05
-5.55729e-06 2.75742e-05 1.75053e-05
-2.64032e-05 1.46534e-05 1.8e-05
-2.67221e-05 -8.99682e-06 1.75451e-05
-2.57621e-05 -5.02762e-06 1.68954e-05
-2.52118e-05 -1.63371e-06 1.65418e-05
-2.52148e-05 1.60539e-06 1.65447e-05
-2.57544e-05 5.01501e-06 1.68936e-05
-2.67084e-05 8.96994e-06 1.75317e-05
-2.63901e-05 -1.46997e-05 1.80287e-05
-5.53058e-06 -2.75886e-05 1.74975e-05
-8.46152e-06 -2.47998e-05 1.68702e-05
-1.1151e-05 -2.26461e-05 1.65266e-05
-1.39473e-05 -2.10515e-05 1.65299e-05
-1.71862e-05 -1.98349e-05 1.69061e-05
-2.10983e-05 -1.8716e-05 1.753e-05
8.96293e-08 -3.00861e-05 1.79959e-05
2.10881e-05 -1.85919e-05 1.74793e-05
1.72159e-05 -1.97281e-05 1.68424e-05
1.40104e-05 -2.09756e-05 1.64821e-05
1.12059e-05 -2.2555e-05 1.65166e-05
8.56593e-06 -2.47382e-05 1.68437e-05
5.64395e-06 -2.75789e-05 1.75028e-05
2.60786e-05 -1.50332e-05 1.79949e-05
2.66703e-05 8.92388e-06 1.74694e-05
2.56782e-05 5.0417e-06 1.68779e-05
2.5164e-05 1.62085e-06 1.64937e-05
2.51612e-05 -1.59699e-06 1.6492e-05
2.57067e-05 -4.98959e-06 1.68578e-05
2.66525e-05 -8.90265e-06 1.74776e-05
2.60617e-05 1.50344e-05 1.79919e-05
5.62243e-06 2.75702e-05 1.74774e-05
8.49346e-06 2.47648e-05 1.68807e-05
1.11979e-05 2.2603e-05 1.64998e-05
1.39811e-05 2.09865e-05 1.64952e-05
1.71929e-05 1.97593e-05 1.68546e-05
2.10791e-05 1.86016e-05 1.74932e-05
0 0 0
0 0 0
0 0 0
0 0 0
0 0 0
0 0 0
2.48151e-08 3.01013e-05 -1.80007e-05
-2.11047e-05 1.86793e-05 -1.75175e-05
-1.72037e-05 1.97996e-05 -1.68903e-05
-1.39835e-05 2.10185e-05 -1.65253e-05
-1.11877e-05 2.26267e-05 -1.65192e-05
-8.50892e-06 2.47908e-05 -1.68708e-05
-5.55729e-06 2.75742e-05 -1.75053e-05
-2.64032e-05 1.46534e-05 -1.8e-05
-2.67221e-05 -8.99682e-06 -1.75451e-05
-2.57621e-05 -5.02762e-06 -1.68954e-05
-2.52118e-05 -1.63371e-06 -1.65418e-05
-2.52148e-05 1.60539e-06 -1.65447e-05
-2.57544e-05 5.01501e-06 -1.68936e-05
-2.67084e-05 8.96994e-06 -1.75317e-05
-2.63901e-05 -1.46997e-05 -1.80287e-05
-5.53058e-06 -2.75886e-05 -1.74975e-05
-8.46152e-06 -2.47998e-05 -1.68702e-05
-1.1151e-05 -2.26461e-05 -1.65266e-05
-1.39473e-05 -2.10515e-05 -1.65299e-05
-1.71862e-05 -1.98349e-05 -1.69061e-05
-2.10983e-05 -1.8716e-05 -1.753e-05
8.96293e-08 -3.00861e-05 -1.79959e-05
2.10881e-05 -1.85919e-05 -1.74793e-05
1.72159e-05 -1.97281e-05 -1.68424e-05
1.40104e-05 -2.09756e-05 -1.64821e-05
1.12059e-05 -2.2555e-05 -1.65166e-05
8.56593e-06 -2.47382e-05 -1.68437e-05
5.64395e-06 -2.75789e-05 -1.75028e-05
2.60786e-05 -1.50332e-05 -1.79949e-05
2.66703e-05 8.92388e-06 -1.74694e-05
2.56782e-05 5.0417e-06 -1.68779e-05
2.5164e-05 1.62085e-06 -1.64937e-05
2.51612e-05 -1.59699e-06 -1.6492e-05
2.57067e-05 -4.98959e-06 -1.68578e-05
2.66525e-05 -8.90265e-06 -1.74776e-05
2.60617e-05 1.50344e-05 -1.79919e-05
5.62243e-06 2.75702e-05 -1.74774e-05
8.49346e-06 2.47648e-05 -1.68807e-05
1.11979e-05 2.2603e-05 -1.64998e-05
1.39811e-05 2.09865e-05 -1.64952e-05
1.71929e-05 1.97593e-05 -1.68546e-05
2.10791e-05 1.86016e-05 -1.74932e-05
0 0 0
0 0 0
0 0 0
0 0 0
0 0 0
0 0 0
1.79141e-06 8.57661e-07 4.5457e-06
1.73562e-06 -8.24073e-07 4.45439e-06
4.31406e-07 1.8473e-06 4.48868e-06
4.35547e-07 -1.7784e-06 4.34986e-06
-1.84516e-06 2.09312e-08 4.41604e-06
-1.12168e-06 -1.30724e-06 4.14508e-06
-1.15776e-06 1.30516e-06 4.19378e-06
-2.24747e-05 -7.27561e-06 1.69691e-05
-2.21587e-05 7.35933e-06 1.69379e-05
-4.85193e-06 2.28597e-05 1.69063e-05
-4.84941e-06 -2.30924e-05 1.69332e-05
1.73919e-05 1.56088e-05 1.68992e-05
1.75392e-05 -1.55099e-05 1.69084e-05
2.10383e-05 3.15875e-06 1.62953e-05
-1.39299e-05 1.71224e-05 1.64489e-05
-1.35686e-05 -1.67131e-05 1.63806e-05
7.75473e-06 1.97865e-05 1.63021e-05
7.67183e-06 -2.0276e-05 1.63732e-05
2.14364e-05 -3.43814e-06 1.63709e-05
-2.10676e-05 6.5706e-09 1.62178e-05
-2.23818e-05 1.0981e-05 1.74216e-05
-1.87193e-05 9.23916e-06 1.65971e-05
-1.79529e-05 5.78587e-06 1.60078e-05
-1.49593e-05 7.43609e-06 1.54591e-05
-1.42014e-05 4.30073e-06 1.4804e-05
-1.15142e-05 5.73469e-06 1.40706e-05
-1.08409e-05 3.06389e-06 1.3351e-05
-8.38751e-06 4.29822e-06 1.23839e-05
-9.0445e-06 7.00233e-06 1.34337e-05
-6.19466e-06 5.48016e-06 1.167e-05
-6.81761e-06 8.23653e-06 1.30581e-05
-4.27492e-06 6.66481e-06 1.14319e-05
-4.79251e-06 9.59489e-06 1.3072e-05
-2.39722e-06 7.98118e-06 1.17039e-05
-2.80842e-06 1.11496e-05 1.34522e-05
-4.74679e-07 9.58044e-06 1.24803e-05
-7.37181e-07 1.29761e-05 1.41175e-05
1.72835e-06 1.14996e-05 1.35121e-05
-5.5258e-06 1.268e-05 1.44121e-05
1.68252e-06 8.21145e-06 1.17284e-05
3.9979e-06 1.0105e-05 1.31289e-05
3.69974e-06 7.08721e-06 1.14596e-05
6.05791e-06 8.95264e-06 1.30914e-05
5.75804e-06 6.0975e-06 1.17164e-05
8.34489e-06 8.00768e-06 1.34693e-05
8.09311e-06 5.18723e-06 1.24797e-05
1.09365e-05 7.0857e-06 1.41227e-05
1.0729e-05 4.31597e-06 1.34763e-05
8.51681e-06 1.10198e-05 1.44359e-05
7.92562e-06 2.63972e-06 1.17083e-05
1.06294e-05 1.73448e-06 1.30821e-05
7.93667e-06 3.58217e-07 1.1437e-05
1.07895e-05 -7.57919e-07 1.31022e-05
8.09931e-06 -1.93485e-06 1.169e-05
1.10808e-05 -3.30761e-06 1.34611e-05
8.45665e-06 -4.41714e-06 1.24235e-05
1.14853e-05 -5.99328e-06 1.40853e-05
8.94145e-06 -7.12686e-06 1.34054e-05
6.13819e-06 -5.48607e-06 1.16224e-05
6.63411e-06 -8.2879e-06 1.29965e-05
4.09902e-06 -6.57858e-06 1.12927e-05
4.5163e-06 -9.53596e-06 1.29666e-05
2.23889e-06 -7.84636e-06 1.15785e-05
2.48093e-06 -1.09846e-05 1.33285e-05
2.2494e-07 -9.35923e-06 1.23332e-05
3.29483e-07 -1.27494e-05 1.40099e-05
-1.91243e-06 -1.11331e-05 1.33545e-05
-1.83828e-06 -7.9096e-06 1.15634e-05
-4.16139e-06 -9.8594e-06 1.30632e-05
-3.80819e-06 -6.72035e-06 1.12989e-05
-6.33569e-06 -8.64847e-06 1.30774e-05
-5.88235e-06 -5.68936e-06 1.16095e-05
-8.48633e-06 -7.42409e-06 1.33572e-05
-8.15493e-06 -4.72076e-06 1.23882e-05
-1.10779e-05 -6.39254e-06 1.40459e-05
-4.36465e-06 -1.31021e-05 1.44089e-05
-1.07918e-05 -3.64492e-06 1.34166e-05
7.21456e-06 -1.13546e-05 1.42485e-05
-7.72998e-06 1.97968e-06 1.14743e-05
-1.3195e-05 1.0334e-06 1.41866e-05
1.72631e-06 1.50583e-05 1.49262e-05
1.3746e-05 4.61499e-07 1.43631e-05
1.38207e-05 6.09021e-06 1.49058e-05
-9.67846e-06 1.01799e-05 1.45075e-05
-5.40804e-06 -3.19295e-06 1.01661e-05
-1.16946e-05 -9.28226e-06 1.48634e-05
1.18631e-05 -8.74603e-06 1.47616e-05
1.47576e-05 -7.46136e-06 1.53763e-05
-1.39371e-05 -5.23539e-06 1.48359e-05
2.7913e-06 -1.44927e-05 1.47706e-05
4.23857e-07 -1.64724e-05 1.53708e-05
3.51334e-06 4.39057e-06 9.56622e-06
1.39876e-05 9.2838e-06 1.54644e-05
1.79009e-05 8.13143e-06 1.62715e-05
-1.56494e-05 1.13763e-05 1.62045e-05
-1.09229e-06 1.67416e-05 1.54681e-05
1.90362e-06 1.95889e-05 1.62818e-05
-2.08884e-06 5.21251e-06 9.58268e-06
5.54591e-06 -7.83467e-07 9.57925e-06
3.58082e-06 -3.67829e-06 9.068e-06
-1.77707e-06 -5.17109e-06 9.43496e-06
-2.24302e-05 -1.09921e-05 1.74423e-05
-1.87666e-05 -9.22593e-06 1.66211e-05
2.11117e-05 1.41403e-05 1.74735e-05
2.07183e-05 -1.42929e-05 1.74036e-05
-1.76138e-06 -2.54029e-05 1.74788e-05
-1.67907e-06 2.53669e-05 1.74835e-05
1.76832e-05 -1.18868e-05 1.66571e-05
2.06106e-05 -1.07329e-05 1.70849e-05
3.7693e-06 -1.89536e-05 1.61107e-05
7.67203e-07 -2.03117e-05 1.64533e-05
-1.93722e-05 -1.26289e-05 1.7112e-05
-1.3709e-05 -2.30322e-06 1.44471e-05
-1.65655e-05 -3.69539e-06 1.54504e-05
-1.03597e-05 -1.09467e-06 1.29306e-05
2.44097e-05 1.10541e-05 1.76191e-05
2.54531e-05 -1.2382e-05 1.78151e-05
2.64427e-06 2.66799e-05 1.7628e-05
2.51627e-06 -2.63681e-05 1.75969e-05
3.33357e-06 -2.29929e-05 1.69982e-05
-2.05047e-06 -1.82895e-05 1.59226e-05
4.05183e-06 2.37509e-05 1.70992e-05
2.25756e-05 8.36531e-06 1.70882e-05
4.60596e-06 1.72848e-05 1.56996e-05
1.44031e-05 -1.30976e-05 1.61087e-05
-1.57614e-05 -1.09664e-05 1.61856e-05
-1.67723e-05 -3.80815e-07 1.53505e-05
1.72774e-05 4.67979e-06 1.5698e-05
6.54241e-08 -6.37789e-06 1.02513e-05
1.73922e-06 -4.8415e-06 9.07848e-06
5.84182e-06 -2.93117e-06 1.03618e-05
-2.14082e-05 3.74439e-06 1.64294e-05
5.71994e-06 -1.62478e-05 1.54805e-05
9.06839e-06 -1.74701e-05 1.59692e-05
1.75426e-05 1.18616e-05 1.66423e-05
1.39709e-05 -1.63547e-05 1.63719e-05
1.07224e-05 -1.37663e-05 1.55228e-05
-3.54282e-06 -4.21408e-06 9.48602e-06
5.39131e-06 1.13685e-06 9.48432e-06
5.2104e-06 3.21815e-06 1.00315e-05
-1.74643e-06 -2.83051e-05 1.78438e-05
1.88931e-06 5.2912e-06 9.56955e-06
-1.13659e-07 6.09605e-06 1.0023e-05
-3.77942e-06 4.12175e-06 9.56352e-06
-5.61438e-06 3.02971e-06 1.0269e-05
-5.15803e-06 1.03917e-06 9.19937e-06
-7.51593e-06 -6.16441e-08 1.11545e-05
-4.32828e-06 -8.09143e-07 8.36914e-06
-3.10431e-06 1.86976e-06 7.36303e-06
-2.2044e-05 -3.60191e-06 1.64862e-05
2.33657e-05 -1.56604e-05 1.78031e-05
-1.50461e-06 2.11322e-05 1.6652e-05
2.12262e-05 -8.4378e-08 1.61969e-05
1.75931e-05 -1.64411e-06 1.55541e-05
1.73191e-05 -4.93354e-06 1.57428e-05
2.18544e-05 -7.43873e-06 1.6883e-05
-2.3142e-05 -1.42297e-05 1.77997e-05
1.72962e-05 1.64619e-06 1.54814e-05
-1.73067e-06 2.84234e-05 1.7861e-05
-4.21494e-07 3.67833e-06 7.48406e-06
2.37307e-05 1.57146e-05 1.78514e-05
-1.74678e-05 1.56155e-05 1.69442e-05
-1.06085e-05 -1.84353e-05 1.62262e-05
-1.0083e-05 -1.43187e-05 1.55444e-05
-7.49543e-06 -1.60684e-05 1.55946e-05
-7.30975e-06 -2.00869e-05 1.6366e-05
-1.06866e-05 1.85043e-05 1.62379e-05
-1.03303e-05 1.43604e-05 1.55919e-05
-7.75946e-06 2.04581e-05 1.64148e-05
-4.24588e-06 1.85788e-05 1.60245e-05
1.07418e-05 1.83149e-05 1.61973e-05
1.38685e-05 1.69064e-05 1.64016e-05
1.40187e-05 1.29513e-05 1.60228e-05
-7.34946e-06 1.62615e-05 1.5611e-05
1.05078e-05 1.45231e-05 1.56177e-05
7.73599e-06 1.60659e-05 1.55865e-05
-3.11216e-06 -1.89615e-06 7.38211e-06
-7.24595e-06 -1.2402e-05 1.46e-05
3.00463e-06 4.03045e-08 6.59126e-06
4.86472e-06 1.35009e-05 1.45929e-05
1.40534e-05 -2.25674e-06 1.45454e-05
-1.72606e-05 -1.51907e-05 1.69148e-05
-1.73379e-05 2.41634e-06 1.55704e-05
-1.21849e-05 8.89744e-06 1.49176e-05
-7.69395e-06 -2.28905e-06 1.1536e-05
-1.24293e-05 1.17932e-05 1.55127e-05
-1.42541e-07 -3.74904e-06 7.54286e-06
2.72649e-06 2.26897e-06 7.24111e-06
-2.00063e-06 -1.46267e-05 1.47825e-05
9.35005e-06 -1.00521e-05 1.43648e-05
1.38384e-05 3.15273e-06 1.45411e-05
-7.3283e-06 1.11815e-05 1.4236e-05
4.98921e-06 -1.27543e-05 1.43447e-05
1.1014e-05 1.04136e-05 1.48938e-05
-3.59062e-06 1.46615e-05 1.48822e-05
-4.62785e-06 -1.65896e-05 1.55216e-05
-1.9474e-05 1.28704e-05 1.71301e-05
-2.30869e-05 1.48322e-05 1.78104e-05
-1.28837e-05 -1.26651e-05 1.57846e-05
3.75557e-06 -1.58392e-06 7.89503e-06
1.76199e-06 2.91829e-06 7.07389e-06
-9.21564e-06 -1.05924e-05 1.45069e-05
1.7254e-06 -2.81932e-06 6.92078e-06
9.92916e-07 2.40757e-05 1.72769e-05
2.13315e-05 1.11749e-05 1.72671e-05
-1.46406e-05 -7.94033e-06 1.54582e-05
1.36859e-05 -4.77859e-06 1.46653e-05
-1.90659e-06 -2.17263e-05 1.67724e-05
1.80302e-05 -8.40505e-06 1.63115e-05
-1.66514e-05 -6.31815e-06 1.57546e-05
-4.32338e-07 -1.91983e-06 4.79155e-06
-1.8029e-06 2.99135e-06 7.16648e-06
-2.50083e-05 -1.29594e-05 1.78891e-05
-2.50833e-05 -1.44819e-05 1.79687e-05
-2.50015e-05 1.30112e-05 1.78729e-05
-2.50742e-05 1.46243e-05 1.79488e-05
-1.64619e-06 -3.12057e-06 7.19916e-06
6.31787e-06 1.13503e-05 1.40527e-05
5.32736e-07 -2.4045e-05 1.72707e-05
-5.22099e-07 1.8072e-06 4.63831e-06
7.39541e-06 -1.43204e-05 1.51261e-05
2.32626e-05 -1.31866e-05 1.76961e-05
2.3592e-05 -1.05198e-05 1.74588e-05
1.19685e-05 -1.81805e-05 1.62643e-05
1.47058e-05 -1.01299e-05 1.57677e-05
-1.00115e-05 9.99688e-07 1.27336e-05
-1.73777e-06 -8.14848e-07 4.71665e-06
7.68002e-07 3.70324e-06 7.5618e-06
2.33991e-06 -1.99447e-06 6.5456e-06
2.01228e-05 5.88811e-06 1.64242e-05
5.06144e-06 2.05615e-05 1.64665e-05
3.41457e-07 -2.7632e-05 1.7821e-05
-1.72899e-06 7.08198e-07 4.59969e-06
-3.20715e-06 6.22207e-07 6.81402e-06
3.57228e-06 1.47338e-06 7.62517e-06
4.9825e-07 2.82745e-05 1.78941e-05
2.47172e-05 1.37103e-05 1.78853e-05
-2.02938e-05 1.55089e-05 1.73972e-05
1.17718e-06 1.36272e-06 4.45343e-06
-2.06044e-05 -1.57011e-05 1.74955e-05
-1.89675e-05 -2.3184e-06 1.5918e-05
-1.95265e-05 -5.57579e-06 1.63032e-05
9.04452e-07 -3.24334e-06 6.99568e-06
-4.35865e-06 -1.97563e-05 1.62928e-05
-7.9244e-06 1.38119e-05 1.50749e-05
1.16425e-06 -1.30251e-06 4.33305e-06
1.1915e-05 -1.121e-05 1.52655e-05
6.12236e-06 -2.26579e-05 1.67902e-05
-1.4498e-05 1.43313e-05 1.62946e-05
7.91624e-06 1.32997e-05 1.49222e-05
1.79141e-06 8.57661e-07 -4.5457e-06
1.73562e-06 -8.24073e-07 -4.45439e-06
4.31406e-07 1.8473e-06 -4.48868e-06
4.35547e-07 -1.7784e-06 -4.34986e-06
-1.84516e-06 2.09312e-08 -4.41604e-06
-1.12168e-06 -1.30724e-06 -4.14508e-06
-1.15776e-06 1.30516e-06 -4.19378e-06
-2.24747e-05 -7.27561e-06 -1.69691e-05
-2.21587e-05 7.35933e-06 -1.69379e-05
-4.85193e-06 2.28597e-05 -1.69063e-05
-4.84941e-06 -2.30924e-05 -1.69332e-05
1.73919e-05 1.56088e-05 -1.68992e-05
1.75392e-05 -1.55099e-05 -1.69084e-05
2.10383e-05 3.15875e-06 -1.62953e-05
-1.39299e-05 1.71224e-05 -1.64489e-05
-1.35686e-05 -1.67131e-05 -1.63806e-05
7.75473e-06 1.97865e-05 -1.63021e-05
7.67183e-06 -2.0276e-05 -1.63732e-05
2.14364e-05 -3.43814e-06 -1.63709e-05
-2.10676e-05 6.5706e-09 -1.62178e-05
-2.23818e-05 1.0981e-05 -1.74216e-05
-1.87193e-05 9.23916e-06 -1.65971e-05
-1.79529e-05 5.78587e-06 -1.60078e-05
-1.49593e-05 7.43609e-06 -1.54591e-05
-1.42014e-05 4.30073e-06 -1.4804e-05
-1.15142e-05 5.73469e-06 -1.40706e-05
-1.08409e-05 3.06389e-06 -1.3351e-05
-8.38751e-06 4.29822e-06 -1.23839e-05
-9.0445e-06 7.00233e-06 -1.34337e-05
-6.19466e-06 5.48016e-06 -1.167e-05
-6.81761e-06 8.23653e-06 -1.30581e-05
-4.27492e-06 6.66481e-06 -1.14319e-05
-4.79251e-06 9.59489e-06 -1.3072e-05
-2.39722e-06 7.98118e-06 -1.17039e-05
-2.80842e-06 1.11496e-05 -1.34522e-05
-4.74679e-07 9.58044e-06 -1.24803e-05
-7.37181e-07 1.29761e-05 -1.41175e-05
1.72835e-06 1.14996e-05 -1.35121e-05
-5.5258e-06 1.268e-05 -1.44121e-05
1.68252e-06 8.21145e-06 -1.17284e-05
3.9979e-06 1.0105e-05 -1.31289e-05
3.69974e-06 7.08721e-06 -1.14596e-05
6.05791e-06 8.95264e-06 -1.30914e-05
5.75804e-06 6.0975e-06 -1.17164e-05
8.34489e-06 8.00768e-06 -1.34693e-05
8.09311e-06 5.18723e-06 -1.24797e-05
1.09365e-05 7.0857e-06 -1.41227e-05
1.0729e-05 4.31597e-06 -1.34763e-05
8.51681e-06 1.10198e-05 -1.44359e-05
7.92562e-06 2.63972e-06 -1.17083e-05
1.06294e-05 1.73448e-06 -1.30821e-05
7.93667e-06 3.58217e-07 -1.1437e-05
1.07895e-05 -7.57919e-07 -1.31022e-05
8.09931e-06 -1.93485e-06 -1.169e-05
1.10808e-05 -3.30761e-06 -1.34611e-05
8.45665e-06 -4.41714e-06 -1.24235e-05
1.14853e-05 -5.99328e-06 -1.40853e-05
8.94145e-06 -7.12686e-06 -1.34054e-05
6.13819e-06 -5.48607e-06 -1.16224e-05
6.63411e-06 -8.2879e-06 -1.29965e-05
4.09902e-06 -6.57858e-06 -1.12927e-05
4.5163e-06 -9.53596e-06 -1.29666e-05
2.23889e-06 -7.84636e-06 -1.15785e-05
2.48093e-06 -1.09846e-05 -1.33285e-05
2.2494e-07 -9.35923e-06 -1.23332e-05
3.29483e-07 -1.27494e-05 -1.40099e-05
-1.91243e-06 -1.11331e-05 -1.33545e-05
-1.83828e-06 -7.9096e-06 -1.15634e-05
-4.16139e-06 -9.8594e-06 -1.30632e-05
-3.80819e-06 -6.72035e-06 -1.12989e-05
-6.33569e-06 -8.64847e-06 -1.30774e-05
-5.88235e-06 -5.68936e-06 -1.16095e-05
-8.48633e-06 -7.42409e-06 -1.33572e-05
-8.15493e-06 -4.72076e-06 -1.23882e-05
-1.10779e-05 -6.39254e-06 -1.40459e-05
-4.36465e-06 -1.31021e-05 -1.44089e-05
-1.07918e-05 -3.64492e-06 -1.34166e-05
7.21456e-06 -1.13546e-05 -1.42485e-05
-7.72998e-06 1.97968e-06 -1.14743e-05
-1.3195e-05 1.0334e-06 -1.41866e-05
1.72631e-06 1.50583e-05 -1.49262e-05
1.3746e-05 4.61499e-07 -1.43631e-05
1.38207e-05 6.09021e-06 -1.49058e-05
-9.67846e-06 1.01799e-05 -1.45075e-05
-5.40804e-06 -3.19295e-06 -1.01661e-05
-1.16946e-05 -9.28226e-06 -1.48634e-05
1.18631e-05 -8.74603e-06 -1.47616e-05
1.47576e-05 -7.46136e-06 -1.53763e-05
-1.39371e-05 -5.23539e-06 -1.48359e-05
2.7913e-06 -1.44927e-05 -1.47706e-05
4.23857e-07 -1.64724e-05 -1.53708e-05
3.51334e-06 4.39057e-06 -9.56622e-06
1.39876e-05 9.2838e-06 -1.54644e-05
1.79009e-05 8.13143e-06 -1.62715e-05
-1.56494e-05 1.13763e-05 -1.62045e-05
-1.09229e-06 1.67416e-05 -1.54681e-05
1.90362e-06 1.95889e-05 -1.62818e-05
-2.08884e-06 5.21251e-06 -9.58268e-06
5.54591e-06 -7.83467e-07 -9.57925e-06
3.58082e-06 -3.67829e-06 -9.068e-06
-1.77707e-06 -5.17109e-06 -9.43496e-06
-2.24302e-05 -1.09921e-05 -1.74423e-05
-1.87666e-05 -9.22593e-06 -1.66211e-05
2.11117e-05 1.41403e-05 -1.74735e-05
2.07183e-05 -1.42929e-05 -1.74036e-05
-1.76138e-06 -2.54029e-05 -1.74788e-05
-1.67907e-06 2.53669e-05 -1.74835e-05
1.76832e-05 -1.18868e-05 -1.66571e-05
2.06106e-05 -1.07329e-05 -1.70849e-05
3.7693e-06 -1.89536e-05 -1.61107e-05
7.67203e-07 -2.03117e-05 -1.64533e-05
-1.93722e-05 -1.26289e-05 -1.7112e-05
-1.3709e-05 -2.30322e-06 -1.44471e-05
-1.65655e-05 -3.69539e-06 -1.54504e-05
-1.03597e-05 -1.09467e-06 -1.29306e-05
2.44097e-05 1.10541e-05 -1.76191e-05
2.54531e-05 -1.2382e-05 -1.78151e-05
2.64427e-06 2.66799e-05 -1.7628e-05
2.51627e-06 -2.63681e-05 -1.75969e-05
3.33357e-06 -2.29929e-05 -1.69982e-05
-2.05047e-06 -1.82895e-05 -1.59226e-05
4.05183e-06 2.37509e-05 -1.70992e-05
2.25756e-05 8.36531e-06 -1.70882e-05
4.60596e-06 1.72848e-05 -1.56996e-05
1.44031e-05 -1.30976e-05 -1.61087e-05
-1.57614e-05 -1.09664e-05 -1.61856e-05
-1.67723e-05 -3.80815e-07 -1.53505e-05
1.72774e-05 4.67979e-06 -1.5698e-05
6.54241e-08 -6.37789e-06 -1.02513e-05
1.73922e-06 -4.8415e-06 -9.07848e-06
5.84182e-06 -2.93117e-06 -1.03618e-05
-2.14082e-05 3.74439e-06 -1.64294e-05
5.71994e-06 -1.62478e-05 -1.54805e-05
9.06839e-06 -1.74701e-05 -1.59692e-05
1.75426e-05 1.18616e-05 -1.66423e-05
1.39709e-05 -1.63547e-05 -1.63719e-05
1.07224e-05 -1.37663e-05 -1.55228e-05
-3.54282e-06 -4.21408e-06 -9.48602e-06
5.39131e-06 1.13685e-06 -9.48432e-06
5.2104e-06 3.21815e-06 -1.00315e-05
-1.74643e-06 -2.83051e-05 -1.78438e-05
1.88931e-06 5.2912e-06 -9.56955e-06
-1.13659e-07 6.09605e-06 -1.0023e-05
-3.77942e-06 4.12175e-06 -9.56352e-06
-5.61438e-06 3.02971e-06 -1.0269e-05
-5.15803e-06 1.03917e-06 -9.19937e-06
-7.51593e-06 -6.16441e-08 -1.11545e-05
-4.32828e-06 -8.09143e-07 -8.36914e-06
-3.10431e-06 1.86976e-06 -7.36303e-06
-2.2044e-05 -3.60191e-06 -1.64862e-05
2.33657e-05 -1.56604e-05 -1.78031e-05
-1.50461e-06 2.11322e-05 -1.6652e-05
2.12262e-05 -8.4378e-08 -1.61969e-05
1.75931e-05 -1.64411e-06 -1.55541e-05
1.73191e-05 -4.93354e-06 -1.57428e-05
2.18544e-05 -7.43873e-06 -1.6883e-05
-2.3142e-05 -1.42297e-05 -1.77997e-05
1.72962e-05 1.64619e-06 -1.54814e-05
-1.73067e-06 2.84234e-05 -1.7861e-05