# vtk DataFile Version 3.0
vtk output at time 86400
ASCII
DATASET UNSTRUCTURED_GRID
POINTS 626 float
-4.21048e-05 0.0010896 6.06214e-05 4.20546e-05 0.00108963 6.07007e-05 -0.000922662 0.000581248 6.06824e-05 
-0.000916399 0.000557043 6.06183e-05 -0.000964732 0.000508342 6.06497e-05 -0.000964697 -0.000508483 6.0696e-05 
-0.000916314 -0.000557164 6.07128e-05 -0.000922621 -0.00058133 6.08229e-05 -4.19242e-05 -0.00108961 6.06142e-05 
4.21504e-05 -0.0010896 6.07012e-05 0.000922593 -0.000581211 6.06003e-05 0.00096473 -0.00050827 6.0601e-05 
0.000964617 0.000508417 6.06832e-05 0.000922507 0.000581286 6.06029e-05 8.5e-05 0 0 
-4.21048e-05 0.0010896 -0.00106062 4.20546e-05 0.00108963 -0.0010607 -0.000922662 0.000581248 -0.00106068 
-0.000916399 0.000557043 -0.00106062 -0.000964732 0.000508342 -0.00106065 -0.000964697 -0.000508483 -0.0010607 
-0.000916314 -0.000557164 -0.00106071 -0.000922621 -0.00058133 -0.00106082 -4.19242e-05 -0.00108961 -0.00106061 
4.21504e-05 -0.0010896 -0.0010607 0.000922593 -0.000581211 -0.0010606 0.00096473 -0.00050827 -0.0010606 
0.000964617 0.000508417 -0.00106068 0.000922507 0.000581286 -0.0010606 8.5e-05 0 -0.001 
2.60889e-08 0.00106571 6.05836e-05 -0.000794225 0.000653357 5.96688e-05 -0.000667552 0.0007243 5.84203e-05 
-0.000542211 0.000795412 5.76814e-05 -0.000417709 0.000867285 5.76697e-05 -0.000293434 0.000940254 5.83825e-05 
-0.000168608 0.00101443 5.96426e-05 -0.000930675 0.000522811 6.05861e-05 -0.00096291 -0.000361285 5.97225e-05 
-0.000961048 -0.000216045 5.84312e-05 -0.000959972 -7.19448e-05 5.77152e-05 -0.000959983 7.18453e-05 5.77225e-05 
-0.000961044 0.000215974 5.84291e-05 -0.000962899 0.000361183 5.96969e-05 -0.000930626 -0.000522951 6.06374e-05 
-0.000168504 -0.00101446 5.96273e-05 -0.000293295 -0.000940285 5.83816e-05 -0.000417595 -0.000867345 5.7686e-05 
-0.000542102 -0.000795503 5.7692e-05 -0.000667483 -0.000724402 5.84533e-05 -0.00079418 -0.000653466 5.96899e-05 
2.06164e-07 -0.00106568 6.05728e-05 0.000794199 -0.000653186 5.95919e-05 0.000667582 -0.000724156 5.83249e-05 
0.00054227 -0.000795319 5.75935e-05 0.000417759 -0.000867147 5.76658e-05 0.000293562 -0.000940145 5.83266e-05 
0.000168791 -0.00101443 5.96355e-05 0.000922945 -0.000532796 6.05741e-05 0.000962806 0.000361137 5.95699e-05 
0.000960892 0.000216071 5.83984e-05 0.000959881 7.1923e-05 5.76183e-05 0.000959879 -7.18235e-05 5.76157e-05 
0.000960955 -0.00021592 5.83573e-05 0.000962798 -0.000361045 5.95902e-05 0.000922885 0.000532853 6.05654e-05 
0.000168695 0.00101442 5.95865e-05 0.000293374 0.000940217 5.84034e-05 0.000417696 0.000867256 5.76296e-05 
0.000542175 0.000795372 5.76205e-05 0.000667501 0.000724251 5.83492e-05 0.00079415 0.000653247 5.9618e-05 
5.29966e-05 6.64557e-05 0 -1.89143e-05 8.28689e-05 0 -7.65824e-05 3.68801e-05 0 
-7.65824e-05 -3.68801e-05 0 -1.89143e-05 -8.28689e-05 0 5.29966e-05 -6.64557e-05 0 
2.60889e-08 0.00106571 -0.00106058 -0.000794225 0.000653357 -0.00105967 -0.000667552 0.0007243 -0.00105842 
-0.000542211 0.000795412 -0.00105768 -0.000417709 0.000867285 -0.00105767 -0.000293434 0.000940254 -0.00105838 
-0.000168608 0.00101443 -0.00105964 -0.000930675 0.000522811 -0.00106059 -0.00096291 -0.000361285 -0.00105972 
-0.000961048 -0.000216045 -0.00105843 -0.000959972 -7.19448e-05 -0.00105772 -0.000959983 7.18453e-05 -0.00105772 
-0.000961044 0.000215974 -0.00105843 -0.000962899 0.000361183 -0.0010597 -0.000930626 -0.000522951 -0.00106064 
-0.000168504 -0.00101446 -0.00105963 -0.000293295 -0.000940285 -0.00105838 -0.000417595 -0.000867345 -0.00105769 
-0.000542102 -0.000795503 -0.00105769 -0.000667483 -0.000724402 -0.00105845 -0.00079418 -0.000653466 -0.00105969 
2.06164e-07 -0.00106568 -0.00106057 0.000794199 -0.000653186 -0.00105959 0.000667582 -0.000724156 -0.00105832 
0.00054227 -0.000795319 -0.00105759 0.000417759 -0.000867147 -0.00105767 0.000293562 -0.000940145 -0.00105833 
0.000168791 -0.00101443 -0.00105964 0.000922945 -0.000532796 -0.00106057 0.000962806 0.000361137 -0.00105957 
0.000960892 0.000216071 -0.0010584 0.000959881 7.1923e-05 -0.00105762 0.000959879 -7.18235e-05 -0.00105762 
0.000960955 -0.00021592 -0.00105836 0.000962798 -0.000361045 -0.00105959 0.000922885 0.000532853 -0.00106057 
0.000168695 0.00101442 -0.00105959 0.000293374 0.000940217 -0.0010584 0.000417696 0.000867256 -0.00105763 
0.000542175 0.000795372 -0.00105762 0.000667501 0.000724251 -0.00105835 0.00079415 0.000653247 -0.00105962 
5.29966e-05 6.64557e-05 -0.001 -1.89143e-05 8.28689e-05 -0.001 -7.65824e-05 3.68801e-05 -0.001 
-7.65824e-05 -3.68801e-05 -0.001 -1.89143e-05 -8.28689e-05 -0.001 5.29966e-05 -6.64557e-05 -0.001 
0.000139889 6.8027e-05 1.99429e-05 0.000138053 -6.64738e-05 1.95617e-05 3.34673e-05 0.00014841 1.97857e-05 
3.3347e-05 -0.000145638 1.91882e-05 -0.000149466 8.79163e-08 1.94612e-05 -9.45497e-05 -0.0001091 1.83131e-05 
-9.60664e-05 0.000109269 1.8518e-05 -0.000849273 -0.000287313 5.85811e-05 -0.000839316 0.000290722 5.85196e-05 
-0.000173659 0.000872886 5.84558e-05 -0.000173311 -0.000879701 5.8509e-05 0.000670327 0.000585855 5.84407e-05 
0.000674456 -0.000582403 5.84588e-05 0.000823678 0.000129171 5.72179e-05 -0.000547218 0.000660506 5.75316e-05 
-0.000535388 -0.00064757 5.73935e-05 0.000298579 0.000777216 5.72304e-05 0.000291837 -0.00079404 5.73768e-05 
0.000835354 -0.000141127 5.73761e-05 -0.000828775 6.06867e-07 5.70618e-05 -0.000830228 0.000414652 5.94734e-05 
-0.000724632 0.000359684 5.78202e-05 -0.00071362 0.000232282 5.66037e-05 -0.000608634 0.000302875 5.54045e-05 
-0.000594494 0.000180024 5.39365e-05 -0.000496402 0.000247249 5.21812e-05 -0.000482177 0.000136266 5.03769e-05 
-0.000388633 0.000199371 4.77654e-05 -0.000400347 0.000310395 5.05857e-05 -0.000296255 0.000262394 4.57263e-05 
-0.000306836 0.000371128 4.96153e-05 -0.000206858 0.000322812 4.50278e-05 -0.000215937 0.000432266 4.96561e-05 
-0.000114802 0.000381614 4.58315e-05 -0.000124673 0.000493946 5.06458e-05 -2.20706e-05 0.000442622 4.80527e-05 
-3.18618e-05 0.000558655 5.23041e-05 7.64818e-05 0.00050787 5.07972e-05 -0.000235502 0.000540326 5.30332e-05 
8.04064e-05 0.00039202 4.59059e-05 0.000179552 0.000454006 4.98065e-05 0.000178902 0.000342803 4.51043e-05 
0.000272684 0.000402734 4.97061e-05 0.000274963 0.000291238 4.58664e-05 0.000369322 0.000354542 5.06907e-05 
0.000373839 0.000239484 4.80551e-05 0.000470742 0.00030487 5.23202e-05 0.000474725 0.000190462 5.07118e-05 
0.000362367 0.00046919 5.3092e-05 0.000378992 0.000125845 4.58603e-05 0.000478556 7.75555e-05 4.96978e-05 
0.000384265 1.69529e-05 4.50667e-05 0.000485379 -3.42609e-05 4.97536e-05 0.000387414 -9.28656e-05 4.5809e-05 
0.000490416 -0.000146266 5.06709e-05 0.000390936 -0.000204535 4.78882e-05 0.000494749 -0.000258492 5.22239e-05 
0.000396019 -0.000316632 5.05197e-05 0.000294249 -0.000263518 4.55941e-05 0.000298869 -0.000374787 4.94587e-05 
0.000199059 -0.000320794 4.46152e-05 0.000203713 -0.000431696 4.938e-05 0.000106937 -0.000377721 4.54606e-05 
0.000109893 -0.000489268 5.03226e-05 9.6562e-06 -0.000434937 4.76299e-05 1.33789e-05 -0.000551253 5.20352e-05 
-8.61566e-05 -0.00049478 5.03857e-05 -8.92018e-05 -0.000380392 4.54168e-05 -0.000188518 -0.000443789 4.96375e-05 
-0.000185953 -0.000327214 4.46308e-05 -0.000285616 -0.000389274 4.96736e-05 -0.000282315 -0.000272958 4.55466e-05 
-0.000377385 -0.00032987 5.03909e-05 -0.000378102 -0.000218567 4.77834e-05 -0.00047838 -0.000275457 5.21201e-05 
-0.000187129 -0.000557576 5.30179e-05 -0.000478751 -0.000160898 5.05521e-05 0.000308941 -0.000487477 5.26486e-05 
-0.000373346 9.59949e-05 4.5135e-05 -0.000567678 4.47223e-05 5.24914e-05 7.17812e-05 0.000627076 5.42144e-05 
0.000587202 1.92959e-05 5.2932e-05 0.000576088 0.000253635 5.41731e-05 -0.000409758 0.000431802 5.32488e-05 
-0.000278594 -0.00016421 4.10465e-05 -0.000488645 -0.000387002 5.40687e-05 0.000496542 -0.000366839 5.38328e-05 
0.00060224 -0.000305166 5.52239e-05 -0.000582333 -0.000218062 5.40027e-05 0.000116233 -0.000607851 5.38634e-05 
1.61882e-05 -0.000672855 5.52098e-05 0.000186799 0.000233646 3.90697e-05 0.000569534 0.000377553 5.54217e-05 
0.000703984 0.000321298 5.7153e-05 -0.000618156 0.000447621 5.70096e-05 -4.43473e-05 0.000681347 5.54279e-05 
7.31464e-05 0.00077074 5.71732e-05 -0.00011093 0.000277383 3.9131e-05 0.000295403 -4.23253e-05 3.91628e-05 
0.000195251 -0.000201593 3.73729e-05 -9.57569e-05 -0.000276966 3.86328e-05 -0.000831806 -0.000414259 5.95123e-05 
-0.000726541 -0.000358175 5.78699e-05 0.000787667 0.000518482 5.95716e-05 0.000775022 -0.000525434 5.94372e-05 
-5.87007e-05 -0.000942358 5.95829e-05 -5.51414e-05 0.000941424 5.95919e-05 0.000683904 -0.000457955 5.79428e-05 
0.000778645 -0.00040989 5.88056e-05 0.000145659 -0.000751349 5.68244e-05 2.76271e-05 -0.000792654 5.75232e-05 
-0.000736405 -0.000474081 5.88609e-05 -0.000582969 -9.711e-05 5.31104e-05 -0.000675107 -0.000150983 5.54043e-05 
-0.000469193 -4.90295e-05 4.92859e-05 0.000889708 0.000419389 5.98561e-05 0.000913283 -0.000460671 6.02345e-05 
8.16921e-05 0.000980256 5.98742e-05 7.66345e-05 -0.000971754 5.98156e-05 0.000116932 -0.000874661 5.8639e-05 
-8.18905e-05 -0.000729953 5.64118e-05 0.000140479 0.000898223 5.88381e-05 0.000847984 0.000327336 5.88157e-05 
0.000184494 0.000697041 5.59484e-05 0.000571349 -0.000516826 5.68171e-05 -0.000623537 -0.000431218 5.69681e-05 
-0.000687612 -1.55119e-05 5.51991e-05 0.000696259 0.000189565 5.59467e-05 2.8304e-06 -0.00032727 4.13445e-05 
9.45725e-05 -0.000264667 3.74027e-05 0.000297135 -0.000149578 4.17058e-05 -0.000832194 0.000152769 5.7493e-05 
0.00023141 -0.000662368 5.54795e-05 0.000359472 -0.00069679 5.65399e-05 0.000680083 0.000456983 5.79124e-05 
0.000549513 -0.000634933 5.73753e-05 0.000436233 -0.000560478 5.55868e-05 -0.000189218 -0.000225147 3.88101e-05 
0.000288523 6.1368e-05 3.88312e-05 0.000270561 0.000166744 4.06558e-05 -5.20931e-05 -0.00102303 6.02873e-05 
[...]
POINT_DATA 626
VECTORS displacement float
-5.29903e-06 0.000110854 6.06214e-05
5.24884e-06 0.000110884 6.07007e-05
-9.34679e-05 5.99973e-05 6.06824e-05
-9.28986e-05 5.7043e-05 6.06183e-05
-9.87315e-05 5.08425e-05 6.06497e-05
-9.86974e-05 -5.09831e-05 6.0696e-05
-9.28137e-05 -5.7164e-05 6.07128e-05
-9.34265e-05 -6.00791e-05 6.08229e-05
-5.11839e-06 -0.000110865 6.06142e-05
5.34456e-06 -0.000110855 6.07012e-05
9.33988e-05 -5.99603e-05 6.06003e-05
9.87304e-05 -5.07702e-05 6.0601e-05
9.86165e-05 5.0917e-05 6.06832e-05
9.33132e-05 6.00355e-05 6.06029e-05
0 0 0
-5.29903e-06 0.000110854 -6.06214e-05
5.24884e-06 0.000110884 -6.07007e-05
-9.34679e-05 5.99973e-05 -6.06824e-05
-9.28986e-05 5.7043e-05 -6.06183e-05
-9.87315e-05 5.08425e-05 -6.06497e-05
-9.86974e-05 -5.09831e-05 -6.0696e-05
-9.28137e-05 -5.7164e-05 -6.07128e-05
-9.34265e-05 -6.00791e-05 -6.08229e-05
-5.11839e-06 -0.000110865 -6.06142e-05
5.34456e-06 -0.000110855 -6.07012e-05
9.33988e-05 -5.99603e-05 -6.06003e-05
9.87304e-05 -5.07702e-05 -6.0601e-05
9.86165e-05 5.0917e-05 -6.06832e-05
9.33132e-05 6.00355e-05 -6.06029e-05
0 0 0
2.60889e-08 0.000108212 6.05836e-05
-7.82296e-05 6.6749e-05 5.96688e-05
-6.47546e-05 7.23352e-05 5.84203e-05
-5.26117e-05 7.80903e-05 5.76814e-05
-4.13081e-05 8.46068e-05 5.76697e-05
-3.02316e-05 9.22188e-05 5.83825e-05
-1.86036e-05 0.000101036 5.96426e-05
-9.47268e-05 5.28629e-05 6.05861e-05
-9.69099e-05 -3.44988e-05 5.97225e-05
-9.50483e-05 -1.99736e-05 5.84312e-05
-9.39723e-05 -6.58767e-06 5.77152e-05
-9.39825e-05 6.48815e-06 5.77225e-05
-9.50444e-05 1.99027e-05 5.84291e-05
-9.68992e-05 3.43973e-05 5.96969e-05
-9.4678e-05 -5.3003e-05 6.06374e-05
-1.84999e-05 -0.000101068 5.96273e-05
-3.00929e-05 -9.22494e-05 5.83816e-05
-4.11937e-05 -8.46662e-05 5.7686e-05
-5.25026e-05 -7.81811e-05 5.7692e-05
-6.46853e-05 -7.24375e-05 5.84533e-05
-7.81839e-05 -6.68589e-05 5.96899e-05
2.06164e-07 -0.000108183 6.05728e-05
7.82034e-05 -6.65784e-05 5.95919e-05
6.47844e-05 -7.21917e-05 5.83249e-05
5.26711e-05 -7.79973e-05 5.75935e-05
4.1358e-05 -8.4468e-05 5.76658e-05
3.03599e-05 -9.21094e-05 5.83266e-05
1.8787e-05 -0.000101038 5.96355e-05
9.37511e-05 -5.40456e-05 6.05741e-05
9.68061e-05 3.43508e-05 5.95699e-05
9.48923e-05 1.99994e-05 5.83984e-05
9.38806e-05 6.56589e-06 5.76183e-05
9.3879e-05 -6.46638e-06 5.76157e-05
9.49548e-05 -1.98489e-05 5.83573e-05
9.67975e-05 -3.42593e-05 5.95902e-05
9.36909e-05 5.41026e-05 6.05654e-05
1.86912e-05 0.000101027 5.95865e-05
3.01711e-05 9.21818e-05 5.84034e-05
4.1295e-05 8.45776e-05 5.76296e-05
5.25761e-05 7.80503e-05 5.76205e-05
6.47033e-05 7.22864e-05 5.83492e-05
7.81539e-05 6.66399e-05 5.9618e-05
0 0 0
0 0 0
0 0 0
0 0 0
0 0 0
0 0 0
2.60889e-08 0.000108212 -6.05836e-05
-7.82296e-05 6.6749e-05 -5.96688e-05
-6.47546e-05 7.23352e-05 -5.84203e-05
-5.26117e-05 7.80903e-05 -5.76814e-05
-4.13081e-05 8.46068e-05 -5.76697e-05
-3.02316e-05 9.22188e-05 -5.83825e-05
-1.86036e-05 0.000101036 -5.96426e-05
-9.47268e-05 5.28629e-05 -6.05861e-05
-9.69099e-05 -3.44988e-05 -5.97225e-05
-9.50483e-05 -1.99736e-05 -5.84312e-05
-9.39723e-05 -6.58767e-06 -5.77152e-05
-9.39825e-05 6.48815e-06 -5.77225e-05
-9.50444e-05 1.99027e-05 -5.84291e-05
-9.68992e-05 3.43973e-05 -5.96969e-05
-9.4678e-05 -5.3003e-05 -6.06374e-05
-1.84999e-05 -0.000101068 -5.96273e-05
-3.00929e-05 -9.22494e-05 -5.83816e-05
-4.11937e-05 -8.46662e-05 -5.7686e-05
-5.25026e-05 -7.81811e-05 -5.7692e-05
-6.46853e-05 -7.24375e-05 -5.84533e-05
-7.81839e-05 -6.68589e-05 -5.96899e-05
2.06164e-07 -0.000108183 -6.05728e-05
7.82034e-05 -6.65784e-05 -5.95919e-05
6.47844e-05 -7.21917e-05 -5.83249e-05
5.26711e-05 -7.79973e-05 -5.75935e-05
4.1358e-05 -8.4468e-05 -5.76658e-05
3.03599e-05 -9.21094e-05 -5.83266e-05
1.8787e-05 -0.000101038 -5.96355e-05
9.37511e-05 -5.40456e-05 -6.05741e-05
9.68061e-05 3.43508e-05 -5.95699e-05
9.48923e-05 1.99994e-05 -5.83984e-05
9.38806e-05 6.56589e-06 -5.76183e-05
9.3879e-05 -6.46638e-06 -5.76157e-05
9.49548e-05 -1.98489e-05 -5.83573e-05
9.67975e-05 -3.42593e-05 -5.95902e-05
9.36909e-05 5.41026e-05 -6.05654e-05
1.86912e-05 0.000101027 -5.95865e-05
3.01711e-05 9.21818e-05 -5.84034e-05
4.1295e-05 8.45776e-05 -5.76296e-05
5.25761e-05 7.80503e-05 -5.76205e-05
6.47033e-05 7.22864e-05 -5.83492e-05
7.81539e-05 6.66399e-05 -5.9618e-05
0 0 0
0 0 0
0 0 0
0 0 0
0 0 0
0 0 0
8.65496e-06 4.17961e-06 1.99429e-05
8.41291e-06 -4.03073e-06 1.95617e-05
2.08461e-06 9.00997e-06 1.97857e-05
2.09155e-06 -8.69954e-06 1.91882e-05
-9.00538e-06 8.79163e-08 1.94612e-05
-5.49316e-06 -6.39313e-06 1.83131e-05
-5.65224e-06 6.39717e-06 1.8518e-05
-8.3504e-05 -2.76634e-05 5.85811e-05
-8.24431e-05 2.79473e-05 5.85196e-05
-1.75688e-05 8.53811e-05 5.84558e-05
-1.75038e-05 -8.61513e-05 5.8509e-05
6.52578e-05 5.78198e-05 5.84407e-05
6.57623e-05 -5.74328e-05 5.84588e-05
7.96088e-05 1.22426e-05 5.72179e-05
-5.28e-05 6.42874e-05 5.75316e-05
-5.1522e-05 -6.29218e-05 5.73935e-05
2.90834e-05 7.49973e-05 5.72304e-05
2.86362e-05 -7.6716e-05 5.73768e-05
8.09246e-05 -1.33015e-05 5.73761e-05
-7.99167e-05 2.22076e-08 5.70618e-05
-8.23897e-05 4.07661e-05 5.94734e-05
-7.04325e-05 3.48423e-05 5.78202e-05
-6.84832e-05 2.21595e-05 5.66037e-05
-5.77503e-05 2.87042e-05 5.54045e-05
-5.56366e-05 1.68285e-05 5.39365e-05
-4.57819e-05 2.27878e-05 5.21812e-05
-4.37845e-05 1.23588e-05 5.03769e-05
-3.45447e-05 1.77029e-05 4.77654e-05
-3.64397e-05 2.82239e-05 5.05857e-05
-2.58936e-05 2.29173e-05 4.57263e-05
-2.76982e-05 3.34749e-05 4.96153e-05
-1.79695e-05 2.80217e-05 4.50278e-05
-1.94889e-05 3.89948e-05 4.96561e-05
-1.00343e-05 3.33553e-05 4.58315e-05
-1.13413e-05 4.49338e-05 5.06458e-05
-1.96401e-06 3.93996e-05 4.80527e-05
-2.9429e-06 5.15498e-05 5.23041e-05
6.95783e-06 4.62737e-05 5.07972e-05
-2.18579e-05 5.01232e-05 5.30332e-05
7.03066e-06 3.42934e-05 4.59059e-05
1.62211e-05 4.1016e-05 4.98065e-05
1.55431e-05 2.97804e-05 4.51043e-05
2.4607e-05 3.63661e-05 4.97061e-05
2.40492e-05 2.548e-05 4.58664e-05
3.36125e-05 3.22764e-05 5.06907e-05
3.32837e-05 2.13359e-05 4.80551e-05
4.34435e-05 2.81533e-05 5.23202e-05
4.32174e-05 1.73688e-05 5.07118e-05
3.36356e-05 4.35569e-05 5.3092e-05
3.3132e-05 1.10214e-05 4.58603e-05
4.3194e-05 7.03142e-06 4.96978e-05
3.33731e-05 1.49796e-06 4.50667e-05
4.38324e-05 -3.07128e-06 4.97536e-05
3.38675e-05 -8.08732e-06 4.5809e-05
4.46498e-05 -1.33019e-05 5.06709e-05
3.48009e-05 -1.81766e-05 4.78882e-05
4.56553e-05 -2.3818e-05 5.22239e-05
3.60411e-05 -2.87565e-05 5.05197e-05
2.56897e-05 -2.29731e-05 4.55941e-05
2.6974e-05 -3.37422e-05 4.94587e-05
1.72669e-05 -2.77442e-05 4.46152e-05
1.83833e-05 -3.88453e-05 4.938e-05
9.36713e-06 -3.28912e-05 4.54606e-05
1.00163e-05 -4.43845e-05 5.03226e-05
9.05041e-07 -3.85939e-05 4.76299e-05
1.28736e-06 -5.07566e-05 5.20352e-05
-7.76373e-06 -4.49369e-05 5.03857e-05
-7.73085e-06 -3.31428e-05 4.54168e-05
-1.69522e-05 -4.0056e-05 4.96375e-05
-1.60642e-05 -2.83231e-05 4.46308e-05
-2.57491e-05 -3.51419e-05 4.96736e-05
-2.46181e-05 -2.38211e-05 4.55466e-05
-3.42558e-05 -2.99744e-05 5.03909e-05
-3.35877e-05 -1.94401e-05 4.77834e-05
-4.40711e-05 -2.54176e-05 5.21201e-05
-1.72974e-05 -5.17602e-05 5.30179e-05
-4.35246e-05 -1.46709e-05 5.05521e-05
2.86101e-05 -4.50531e-05 5.26486e-05
-3.24578e-05 8.31563e-06 4.5135e-05
-5.24267e-05 4.10252e-06 5.24914e-05
6.73213e-06 5.88238e-05 5.42144e-05
5.44219e-05 1.82167e-06 5.2932e-05
5.40177e-05 2.38037e-05 5.41731e-05
-3.81381e-05 4.01423e-05 5.32488e-05
-2.33222e-05 -1.37703e-05 4.10465e-05
-4.5752e-05 -3.62972e-05 5.40687e-05
4.64749e-05 -3.428e-05 5.38328e-05
5.70657e-05 -2.88608e-05 5.52239e-05
-5.4536e-05 -2.0464e-05 5.40027e-05
1.0927e-05 -5.68182e-05 5.38634e-05
1.60459e-06 -6.37079e-05 5.52098e-05
1.53487e-05 1.91934e-05 3.90697e-05
5.40087e-05 3.5842e-05 5.54217e-05
6.78974e-05 3.09303e-05 5.7153e-05
-5.94998e-05 4.3153e-05 5.70096e-05
-4.22408e-06 6.46291e-05 5.54279e-05
7.12726e-06 7.43176e-05 5.71732e-05
-9.12373e-06 2.27825e-05 3.9131e-05
2.42614e-05 -3.43444e-06 3.91628e-05
1.57953e-05 -1.62528e-05 3.73729e-05
-7.80161e-06 -2.26589e-05 3.86328e-05
-8.25389e-05 -4.08084e-05 5.95123e-05
-7.05994e-05 -3.47773e-05 5.78699e-05
7.79211e-05 5.17639e-05 5.95716e-05
7.65962e-05 -5.23482e-05 5.94372e-05
-6.12057e-06 -9.34984e-05 5.95829e-05
-5.84089e-06 9.33854e-05 5.95919e-05
6.65081e-05 -4.45929e-05 5.79428e-05
7.65892e-05 -4.00724e-05 5.88056e-05
1.41991e-05 -7.21781e-05 5.68244e-05
2.80999e-06 -7.67298e-05 5.75232e-05
-7.21881e-05 -4.67907e-05 5.88609e-05
-5.41409e-05 -9.0656e-06 5.31104e-05
-6.40062e-05 -1.43101e-05 5.54043e-05
-4.22201e-05 -4.44542e-06 4.92859e-05
8.90382e-05 4.11729e-05 5.98561e-05
9.21398e-05 -4.56092e-05 6.02345e-05
8.89309e-06 9.77161e-05 5.98742e-05
8.45135e-06 -9.67242e-05 5.98156e-05
1.19689e-05 -8.57151e-05 5.8639e-05
-7.8209e-06 -6.98993e-05 5.64118e-05
1.44177e-05 8.82792e-05 5.88381e-05
8.36229e-05 3.16539e-05 5.88157e-05
1.7632e-05 6.64179e-05 5.59484e-05
5.48873e-05 -4.97554e-05 5.68171e-05
-5.99527e-05 -4.16119e-05 5.69681e-05
-6.50143e-05 -1.48802e-06 5.51991e-05
6.63683e-05 1.80355e-05 5.59467e-05
2.69004e-07 -2.7476e-05 4.13445e-05
7.67153e-06 -2.13768e-05 3.74027e-05
2.50896e-05 -1.25958e-05 4.17058e-05
-8.07141e-05 1.44475e-05 5.7493e-05
2.20437e-05 -6.27792e-05 5.54795e-05
3.45596e-05 -6.6734e-05 5.65399e-05
6.60385e-05 4.45329e-05 5.79124e-05
5.30022e-05 -6.16059e-05 5.73753e-05
4.14109e-05 -5.31577e-05 5.55868e-05
-1.5504e-05 -1.84491e-05 3.88101e-05
2.36263e-05 4.99581e-06 3.88312e-05
2.25637e-05 1.39325e-05 4.06558e-05
-5.76043e-06 -0.00010282 6.02873e-05
8.24687e-06 2.31313e-05 3.90812e-05
-4.99533e-07 2.64073e-05 4.06205e-05
-1.65098e-05 1.80267e-05 3.90695e-05
-2.41748e-05 1.30453e-05 4.13932e-05
-2.26861e-05 4.55774e-06 3.77938e-05
-3.17903e-05 -2.42887e-07 4.41883e-05
-1.94652e-05 -3.63615e-06 3.49944e-05
-1.42122e-05 8.5823e-06 3.1206e-05
-8.28939e-05 -1.39527e-05 5.76066e-05
8.53168e-05 -5.63998e-05 6.02113e-05
-5.57212e-06 7.9468e-05 5.79321e-05
8.05146e-05 -3.22247e-07 5.7019e-05
6.78813e-05 -6.37506e-06 5.56546e-05
6.64939e-05 -1.90019e-05 5.60491e-05
8.14601e-05 -2.8239e-05 5.84103e-05
-8.45045e-05 -5.17147e-05 6.02025e-05
6.68446e-05 6.38753e-06 5.54918e-05
-5.69495e-06 0.000103191 6.03198e-05
-1.92748e-06 1.68057e-05 3.16471e-05
8.64811e-05 5.65437e-05 6.03002e-05
-6.54554e-05 5.77821e-05 5.85296e-05
-4.02582e-05 -6.98542e-05 5.70792e-05
-3.89609e-05 -5.52276e-05 5.5627e-05
-2.89099e-05 -6.19327e-05 5.57404e-05
-2.74199e-05 -7.60172e-05 5.73656e-05
-4.05176e-05 7.00969e-05 5.71018e-05
-3.98603e-05 5.53511e-05 5.57351e-05
-2.89814e-05 7.72896e-05 5.74633e-05
-1.61078e-05 7.08812e-05 5.66402e-05
4.07362e-05 6.94647e-05 5.70176e-05
5.25907e-05 6.35907e-05 5.74362e-05
5.35415e-05 4.93262e-05 5.66369e-05
-2.83087e-05 6.26565e-05 5.57726e-05
4.04952e-05 5.59364e-05 5.57891e-05
2.97908e-05 6.19395e-05 5.57183e-05
-1.42275e-05 -8.68959e-06 3.12332e-05
-2.85669e-05 -4.88391e-05 5.34875e-05
1.40721e-05 1.85151e-07 2.83384e-05
1.91621e-05 5.3157e-05 5.34652e-05
5.5407e-05 -8.88149e-06 5.33592e-05
-6.47728e-05 -5.63294e-05 5.84733e-05
-6.68689e-05 9.34972e-06 5.56821e-05
-4.75988e-05 3.47473e-05 5.41897e-05
-3.22936e-05 -9.60731e-06 4.53604e-05
-4.79654e-05 4.54363e-05 5.55286e-05
-6.63419e-07 -1.7123e-05 3.18918e-05
1.25093e-05 1.04153e-05 3.07245e-05
-7.88032e-06 -5.72917e-05 5.38808e-05
3.69473e-05 -3.97851e-05 5.29144e-05
5.45422e-05 1.24079e-05 5.33421e-05
-2.90863e-05 4.43628e-05 5.26093e-05
1.97371e-05 -5.04884e-05 5.28709e-05
4.30609e-05 4.07321e-05 5.41531e-05
-1.40635e-05 5.7342e-05 5.41249e-05
-1.78628e-05 -6.40001e-05 5.55586e-05
-7.25156e-05 4.76226e-05 5.88964e-05
-8.43101e-05 5.37055e-05 6.0225e-05
-4.94974e-05 -4.85229e-05 5.61318e-05
1.69899e-05 -7.17049e-06 3.31768e-05
8.1032e-06 1.34528e-05 3.0091e-05
-3.63601e-05 -4.17752e-05 5.32527e-05
7.94129e-06 -1.30277e-05 2.94976e-05
3.45263e-06 8.91942e-05 5.91865e-05
7.89447e-05 4.15989e-05 5.91667e-05
-5.65386e-05 -3.06434e-05 5.54017e-05
5.37617e-05 -1.87529e-05 5.36133e-05
-7.01612e-06 -8.14494e-05 5.81775e-05
6.82641e-05 -3.19172e-05 5.72315e-05
-6.38563e-05 -2.42744e-05 5.60511e-05
-2.10292e-06 -9.2556e-06 2.09409e-05
-8.28711e-06 1.37518e-05 3.04211e-05
-9.06003e-05 -4.7446e-05 6.03745e-05
-9.06618e-05 -5.23305e-05 6.05237e-05
-9.05874e-05 4.76044e-05 6.03452e-05
-9.06356e-05 5.28036e-05 6.04896e-05
-7.56858e-06 -1.43243e-05 3.05452e-05
2.51431e-05 4.51816e-05 5.2155e-05
1.83675e-06 -8.90717e-05 5.91736e-05
-2.52511e-06 8.73955e-06 2.02953e-05
2.87656e-05 -5.57613e-05 5.46941e-05
8.50371e-05 -4.8302e-05 6.00065e-05
8.64497e-05 -3.92829e-05 5.95479e-05
4.53417e-05 -6.87201e-05 5.71547e-05
5.63952e-05 -3.8827e-05 5.60799e-05
-4.09687e-05 4.08684e-06 4.87284e-05
-8.41658e-06 -3.93242e-06 2.0641e-05
3.49217e-06 1.68829e-05 3.19206e-05
1.08515e-05 -9.29211e-06 2.79897e-05
7.59214e-05 2.24976e-05 5.74752e-05
1.8795e-05 7.76274e-05 5.75614e-05
1.09229e-06 -0.000100598 6.02434e-05
-8.35934e-06 3.44139e-06 2.0133e-05
-1.48151e-05 2.88545e-06 2.90347e-05
1.62403e-05 6.69411e-06 3.21557e-05
1.6099e-06 0.0001026 6.03814e-05
8.96243e-05 4.9923e-05 6.03632e-05
-7.51463e-05 5.64794e-05 5.94273e-05
5.68536e-06 6.62653e-06 1.95041e-05
-7.62551e-05 -5.70165e-05 5.96226e-05
-7.24957e-05 -8.95685e-06 5.64256e-05
-7.39157e-05 -2.13244e-05 5.72239e-05
4.16123e-06 -1.49548e-05 2.97349e-05
-1.63533e-05 -7.48858e-05 5.71995e-05
-3.08679e-05 5.37997e-05 5.45668e-05
5.61543e-06 -6.34544e-06 1.89838e-05
4.62057e-05 -4.34633e-05 5.49876e-05
2.21799e-05 -8.48179e-05 5.82247e-05
-5.50811e-05 5.41054e-05 5.72029e-05
3.09336e-05 5.19964e-05 5.42237e-05
8.65496e-06 4.17961e-06 -1.99429e-05
8.41291e-06 -4.03073e-06 -1.95617e-05
2.08461e-06 9.00997e-06 -1.97857e-05
2.09155e-06 -8.69954e-06 -1.91882e-05
-9.00538e-06 8.79163e-08 -1.94612e-05
-5.49316e-06 -6.39313e-06 -1.83131e-05
-5.65224e-06 6.39717e-06 -1.8518e-05
-8.3504e-05 -2.76634e-05 -5.85811e-05
-8.24431e-05 2.79473e-05 -5.85196e-05
-1.75688e-05 8.53811e-05 -5.84558e-05
-1.75038e-05 -8.61513e-05 -5.8509e-05
6.52578e-05 5.78198e-05 -5.84407e-05
6.57623e-05 -5.74328e-05 -5.84588e-05
7.96088e-05 1.22426e-05 -5.72179e-05
-5.28e-05 6.42874e-05 -5.75316e-05
-5.1522e-05 -6.29218e-05 -5.73935e-05
2.90834e-05 7.49973e-05 -5.72304e-05
2.86362e-05 -7.6716e-05 -5.73768e-05
8.09246e-05 -1.33015e-05 -5.73761e-05
-7.99167e-05 2.22076e-08 -5.70618e-05
-8.23897e-05 4.07661e-05 -5.94734e-05
-7.04325e-05 3.48423e-05 -5.78202e-05
-6.84832e-05 2.21595e-05 -5.66037e-05
-5.77503e-05 2.87042e-05 -5.54045e-05
-5.56366e-05 1.68285e-05 -5.39365e-05
-4.57819e-05 2.27878e-05 -5.21812e-05
-4.37845e-05 1.23588e-05 -5.03769e-05
-3.45447e-05 1.77029e-05 -4.77654e-05
-3.64397e-05 2.82239e-05 -5.05857e-05
-2.58936e-05 2.29173e-05 -4.57263e-05
-2.76982e-05 3.34749e-05 -4.96153e-05
-1.79695e-05 2.80217e-05 -4.50278e-05
-1.94889e-05 3.89948e-05 -4.96561e-05
-1.00343e-05 3.33553e-05 -4.58315e-05
-1.13413e-05 4.49338e-05 -5.06458e-05
-1.96401e-06 3.93996e-05 -4.80527e-05
-2.9429e-06 5.15498e-05 -5.23041e-05
6.95783e-06 4.62737e-05 -5.07972e-05
-2.18579e-05 5.01232e-05 -5.30332e-05
7.03066e-06 3.42934e-05 -4.59059e-05
1.62211e-05 4.1016e-05 -4.98065e-05
1.55431e-05 2.97804e-05 -4.51043e-05
2.4607e-05 3.63661e-05 -4.97061e-05
2.40492e-05 2.548e-05 -4.58664e-05
3.36125e-05 3.22764e-05 -5.06907e-05
3.32837e-05 2.13359e-05 -4.80551e-05
4.34435e-05 2.81533e-05 -5.23202e-05
4.32174e-05 1.73688e-05 -5.07118e-05
3.36356e-05 4.35569e-05 -5.3092e-05
3.3132e-05 1.10214e-05 -4.58603e-05
4.3194e-05 7.03142e-06 -4.96978e-05
3.33731e-05 1.49796e-06 -4.50667e-05
4.38324e-05 -3.07128e-06 -4.97536e-05
3.38675e-05 -8.08732e-06 -4.5809e-05
4.46498e-05 -1.33019e-05 -5.06709e-05
3.48009e-05 -1.81766e-05 -4.78882e-05
4.56553e-05 -2.3818e-05 -5.22239e-05
3.60411e-05 -2.87565e-05 -5.05197e-05
2.56897e-05 -2.29731e-05 -4.55941e-05
2.6974e-05 -3.37422e-05 -4.94587e-05
1.72669e-05 -2.77442e-05 -4.46152e-05
1.83833e-05 -3.88453e-05 -4.938e-05
9.36713e-06 -3.28912e-05 -4.54606e-05
1.00163e-05 -4.43845e-05 -5.03226e-05
9.05041e-07 -3.85939e-05 -4.76299e-05
1.28736e-06 -5.07566e-05 -5.20352e-05
-7.76373e-06 -4.49369e-05 -5.03857e-05
-7.73085e-06 -3.31428e-05 -4.54168e-05
-1.69522e-05 -4.0056e-05 -4.96375e-05
-1.60642e-05 -2.83231e-05 -4.46308e-05
-2.57491e-05 -3.51419e-05 -4.96736e-05
-2.46181e-05 -2.38211e-05 -4.55466e-05
-3.42558e-05 -2.99744e-05 -5.03909e-05
-3.35877e-05 -1.94401e-05 -4.77834e-05
-4.40711e-05 -2.54176e-05 -5.21201e-05
-1.72974e-05 -5.17602e-05 -5.30179e-05
-4.35246e-05 -1.46709e-05 -5.05521e-05
2.86101e-05 -4.50531e-05 -5.26486e-05
-3.24578e-05 8.31563e-06 -4.5135e-05
-5.24267e-05 4.10252e-06 -5.24914e-05
6.73213e-06 5.88238e-05 -5.42144e-05
5.44219e-05 1.82167e-06 -5.2932e-05
5.40177e-05 2.38037e-05 -5.41731e-05
-3.81381e-05 4.01423e-05 -5.32488e-05
-2.33222e-05 -1.37703e-05 -4.10465e-05
-4.5752e-05 -3.62972e-05 -5.40687e-05
4.64749e-05 -3.428e-05 -5.38328e-05
5.70657e-05 -2.88608e-05 -5.52239e-05
-5.4536e-05 -2.0464e-05 -5.40027e-05
1.0927e-05 -5.68182e-05 -5.38634e-05
1.60459e-06 -6.37079e-05 -5.52098e-05
1.53487e-05 1.91934e-05 -3.90697e-05
5.40087e-05 3.5842e-05 -5.54217e-05
6.78974e-05 3.09303e-05 -5.7153e-05
-5.94998e-05 4.3153e-05 -5.70096e-05
-4.22408e-06 6.46291e-05 -5.54279e-05
7.12726e-06 7.43176e-05 -5.71732e-05
-9.12373e-06 2.27825e-05 -3.9131e-05
2.42614e-05 -3.43444e-06 -3.91628e-05
1.57953e-05 -1.62528e-05 -3.73729e-05
-7.80161e-06 -2.26589e-05 -3.86328e-05
-8.25389e-05 -4.08084e-05 -5.95123e-05
-7.05994e-05 -3.47773e-05 -5.78699e-05
7.79211e-05 5.17639e-05 -5.95716e-05
7.65962e-05 -5.23482e-05 -5.94372e-05
-6.12057e-06 -9.34984e-05 -5.95829e-05
-5.84089e-06 9.33854e-05 -5.95919e-05
6.65081e-05 -4.45929e-05 -5.79428e-05
7.65892e-05 -4.00724e-05 -5.88056e-05
1.41991e-05 -7.21781e-05 -5.68244e-05
2.80999e-06 -7.67298e-05 -5.75232e-05
-7.21881e-05 -4.67907e-05 -5.88609e-05
-5.41409e-05 -9.0656e-06 -5.31104e-05
-6.40062e-05 -1.43101e-05 -5.54043e-05
-4.22201e-05 -4.44542e-06 -4.92859e-05
8.90382e-05 4.11729e-05 -5.98561e-05
9.21398e-05 -4.56092e-05 -6.02345e-05
8.89309e-06 9.77161e-05 -5.98742e-05
8.45135e-06 -9.67242e-05 -5.98156e-05
1.19689e-05 -8.57151e-05 -5.8639e-05
-7.8209e-06 -6.98993e-05 -5.64118e-05
1.44177e-05 8.82792e-05 -5.88381e-05
8.36229e-05 3.16539e-05 -5.88157e-05
1.7632e-05 6.64179e-05 -5.59484e-05
5.48873e-05 -4.97554e-05 -5.68171e-05
-5.99527e-05 -4.16119e-05 -5.69681e-05
-6.50143e-05 -1.48802e-06 -5.51991e-05
6.63683e-05 1.80355e-05 -5.59467e-05
2.69004e-07 -2.7476e-05 -4.13445e-05
7.67153e-06 -2.13768e-05 -3.74027e-05
2.50896e-05 -1.25958e-05 -4.17058e-05
-8.07141e-05 1.44475e-05 -5.7493e-05
2.20437e-05 -6.27792e-05 -5.54795e-05
3.45596e-05 -6.6734e-05 -5.65399e-05
6.60385e-05 4.45329e-05 -5.79124e-05
5.30022e-05 -6.16059e-05 -5.73753e-05
4.14109e-05 -5.31577e-05 -5.55868e-05
-1.5504e-05 -1.84491e-05 -3.88101e-05
2.36263e-05 4.99581e-06 -3.88312e-05
2.25637e-05 1.39325e-05 -4.06558e-05
-5.76043e-06 -0.00010282 -6.02873e-05
8.24687e-06 2.31313e-05 -3.90812e-05
-4.99533e-07 2.64073e-05 -4.06205e-05
-1.65098e-05 1.80267e-05 -3.90695e-05
-2.41748e-05 1.30453e-05 -4.13932e-05
-2.26861e-05 4.55774e-06 -3.77938e-05
-3.17903e-05 -2.42887e-07 -4.41883e-05
-1.94652e-05 -3.63615e-06 -3.49944e-05
-1.42122e-05 8.5823e-06 -3.1206e-05
-8.28939e-05 -1.39527e-05 -5.76066e-05
8.53168e-05 -5.63998e-05 -6.02113e-05
-5.57212e-06 7.9468e-05 -5.79321e-05
8.05146e-05 -3.22247e-07 -5.7019e-05
6.78813e-05 -6.37506e-06 -5.56546e-05
6.64939e-05 -1.90019e-05 -5.60491e-05
8.14601e-05 -2.8239e-05 -5.84103e-05
-8.45045e-05 -5.17147e-05 -6.02025e-05
6.68446e-05 6.38753e-06 -5.54918e-05